Title Card Required                                                     
FOpt      RB3LYP                                                      6-31G(d)            
Number of atoms                            I               15
Info1-9                                    I   N=           9
          40          24           0           0           0         110
           2          18        -502
Full Title                                 C   N=           2
Title Card Required     
Route                                      C   N=           6
#p opt b3lyp/6-31g(d) scrf=(solvent=water,pcm) empiricaldisp
ersion=gd3  
Charge                                     I                0
Multiplicity                               I                1
Number of electrons                        I               50
Number of alpha electrons                  I               25
Number of beta electrons                   I               25
Number of basis functions                  I              121
Number of independent functions            I              121
Number of point charges in /Mol/           I                0
Number of translation vectors              I                0
Atomic numbers                             I   N=          15
           6           6           6           6           6           6
           1           1           1           1           1           6
           1           1           1
Nuclear charges                            R   N=          15
  6.00000000E+00  6.00000000E+00  6.00000000E+00  6.00000000E+00  6.00000000E+00
  6.00000000E+00  1.00000000E+00  1.00000000E+00  1.00000000E+00  1.00000000E+00
  1.00000000E+00  6.00000000E+00  1.00000000E+00  1.00000000E+00  1.00000000E+00
Current cartesian coordinates              R   N=          45
 -2.27165466E+00  2.27988861E+00  4.20361406E-03  3.68098904E-01  2.27465244E+00
 -1.74162718E-02  1.72870789E+00  6.44467418E-04 -2.28712727E-02  3.68920701E-01
 -2.27415159E+00 -1.74228931E-02 -2.27057581E+00 -2.28049085E+00  4.21483322E-03
 -3.60277513E+00 -4.77688201E-04  1.62451309E-02 -3.28764532E+00  4.06525747E+00
  3.68320798E-03  1.38911748E+00  4.05890639E+00 -3.38009542E-02  1.39082759E+00
 -4.05792399E+00 -3.39111045E-02 -3.28594736E+00 -4.06621314E+00  3.70958743E-03
 -5.65632061E+00 -9.81347813E-04  2.70721694E-02  4.58499571E+00  2.56497801E-04
  1.74237513E-02  5.30195029E+00 -2.37290695E-02  1.96501250E+00  5.35676390E+00
 -1.66536403E+00 -9.39141743E-01  5.35694844E+00  1.68811636E+00 -8.98885019E-01
Number of symbols in /Mol/                 I                0
Force Field                                I                0
Atom Types                                 C   N=          15
                                                            
                                                            
                                                            
Int Atom Types                             I   N=          15
           0           0           0           0           0           0
           0           0           0           0           0           0
           0           0           0
MM charges                                 R   N=          15
  0.00000000E+00  0.00000000E+00  0.00000000E+00  0.00000000E+00  0.00000000E+00
  0.00000000E+00  0.00000000E+00  0.00000000E+00  0.00000000E+00  0.00000000E+00
  0.00000000E+00  0.00000000E+00  0.00000000E+00  0.00000000E+00  0.00000000E+00
Integer atomic weights                     I   N=          15
          12          12          12          12          12          12
           1           1           1           1           1          12
           1           1           1
Real atomic weights                        R   N=          15
  1.20000000E+01  1.20000000E+01  1.20000000E+01  1.20000000E+01  1.20000000E+01
  1.20000000E+01  1.00782504E+00  1.00782504E+00  1.00782504E+00  1.00782504E+00
  1.00782504E+00  1.20000000E+01  1.00782504E+00  1.00782504E+00  1.00782504E+00
Atom fragment info                         I   N=          15
           0           0           0           0           0           0
           0           0           0           0           0           0
           0           0           0
Atom residue num                           I   N=          15
           0           0           0           0           0           0
           0           0           0           0           0           0
           0           0           0
Nuclear spins                              I   N=          15
           0           0           0           0           0           0
           1           1           1           1           1           0
           1           1           1
Nuclear ZEff                               R   N=          15
 -3.60000000E+00 -3.60000000E+00 -3.60000000E+00 -3.60000000E+00 -3.60000000E+00
 -3.60000000E+00 -1.00000000E+00 -1.00000000E+00 -1.00000000E+00 -1.00000000E+00
 -1.00000000E+00 -3.60000000E+00 -1.00000000E+00 -1.00000000E+00 -1.00000000E+00
Nuclear ZNuc                               R   N=          15
  6.00000000E+00  6.00000000E+00  6.00000000E+00  6.00000000E+00  6.00000000E+00
  6.00000000E+00  1.00000000E+00  1.00000000E+00  1.00000000E+00  1.00000000E+00
  1.00000000E+00  6.00000000E+00  1.00000000E+00  1.00000000E+00  1.00000000E+00
Nuclear QMom                               R   N=          15
  0.00000000E+00  0.00000000E+00  0.00000000E+00  0.00000000E+00  0.00000000E+00
  0.00000000E+00  0.00000000E+00  0.00000000E+00  0.00000000E+00  0.00000000E+00
  0.00000000E+00  0.00000000E+00  0.00000000E+00  0.00000000E+00  0.00000000E+00
Nuclear GFac                               R   N=          15
  0.00000000E+00  0.00000000E+00  0.00000000E+00  0.00000000E+00  0.00000000E+00
  0.00000000E+00  2.79284600E+00  2.79284600E+00  2.79284600E+00  2.79284600E+00
  2.79284600E+00  0.00000000E+00  2.79284600E+00  2.79284600E+00  2.79284600E+00
MicOpt                                     I   N=          15
          -1          -1          -1          -1          -1          -1
          -1          -1          -1          -1          -1          -1
          -1          -1          -1
Number of residues                         I                0
Number of secondary structures             I                0
Redundant internal dimensions              I   N=           4
          69          15          24          30
Redundant internal coordinate indices      I   N=         276
           1           2           0           0           1           6
           0           0           1           7           0           0
           2           3           0           0           2           8
           0           0           3           4           0           0
           3          12           0           0           4           5
           0           0           4           9           0           0
           5           6           0           0           5          10
           0           0           6          11           0           0
          12          13           0           0          12          14
           0           0          12          15           0           0
           2           1           6           0           2           1
           7           0           6           1           7           0
           1           2           3           0           1           2
           8           0           3           2           8           0
           2           3           4           0           2           3
          12           0           4           3          12           0
           3           4           5           0           3           4
           9           0           5           4           9           0
           4           5           6           0           4           5
          10           0           6           5          10           0
           1           6           5           0           1           6
          11           0           5           6          11           0
           3          12          13           0           3          12
          14           0           3          12          15           0
          13          12          14           0          13          12
          15           0          14          12          15           0
           6           1           2           3           6           1
           2           8           7           1           2           3
           7           1           2           8           2           1
           6           5           2           1           6          11
           7           1           6           5           7           1
           6          11           1           2           3           4
           1           2           3          12           8           2
           3           4           8           2           3          12
           2           3           4           5           2           3
           4           9          12           3           4           5
          12           3           4           9           2           3
          12          13           2           3          12          14
           2           3          12          15           4           3
          12          13           4           3          12          14
           4           3          12          15           3           4
           5           6           3           4           5          10
           9           4           5           6           9           4
           5          10           4           5           6           1
           4           5           6          11          10           5
           6           1          10           5           6          11
Redundant internal coordinates             R   N=          69
  2.63984729E+00  2.64047290E+00  2.05421013E+00  2.64998091E+00  2.05579901E+00
  2.65023546E+00  2.85657206E+00  2.63959281E+00  2.05582332E+00  2.64071198E+00
  2.05421122E+00  2.05357408E+00  2.07550021E+00  2.07000856E+00  2.06988011E+00
  2.09720151E+00  2.09012074E+00  2.09585444E+00  2.11196938E+00  2.08860704E+00
  2.08260720E+00  2.06362187E+00  2.11002874E+00  2.10933846E+00  2.11196868E+00
  2.08253427E+00  2.08868059E+00  2.09720362E+00  2.09019184E+00  2.09578120E+00
  2.08439464E+00  2.09942634E+00  2.09935605E+00  1.93760789E+00  1.94591935E+00
  1.94609796E+00  1.87081538E+00  1.87129738E+00  1.88864383E+00 -2.00533665E-03
  3.13760079E+00 -3.13913950E+00  4.66625739E-04 -9.80876934E-04 -3.13821253E+00
  3.13613855E+00 -1.09310277E-03  4.87914109E-03 -3.11560312E+00 -3.13473372E+00
  2.79693253E-02 -4.88795417E-03  3.13467976E+00  3.11560302E+00 -2.80145673E-02
  1.57228539E+00 -2.62623868E+00 -5.13103279E-01 -1.54764245E+00  5.37018792E-01
  2.65015419E+00  2.02280721E-03  3.13915058E+00 -3.13753786E+00 -4.10085777E-04
  9.72161312E-04  3.13820400E+00 -3.13614123E+00  1.09060889E-03
ZRed-IntVec                                I   N=          69
           0           0           0           0           0           0
           0           0           0           0           0           0
           0           0           0           0           0           0
           0           0           0           0           0           0
           0           0           0           0           0           0
           0           0           0           0           0           0
           0           0           0           0           0           0
           0           0           0           0           0           0
           0           0           0           0           0           0
           0           0           0           0           0           0
           0           0           0           0           0           0
           0           0           0
ZRed-FPVec                                 R   N=          69
  0.00000000E+00  0.00000000E+00  0.00000000E+00  0.00000000E+00  0.00000000E+00
  0.00000000E+00  0.00000000E+00  0.00000000E+00  0.00000000E+00  0.00000000E+00
  0.00000000E+00  0.00000000E+00  0.00000000E+00  0.00000000E+00  0.00000000E+00
  0.00000000E+00  0.00000000E+00  0.00000000E+00  0.00000000E+00  0.00000000E+00
  0.00000000E+00  0.00000000E+00  0.00000000E+00  0.00000000E+00  0.00000000E+00
  0.00000000E+00  0.00000000E+00  0.00000000E+00  0.00000000E+00  0.00000000E+00
  0.00000000E+00  0.00000000E+00  0.00000000E+00  0.00000000E+00  0.00000000E+00
  0.00000000E+00  0.00000000E+00  0.00000000E+00  0.00000000E+00  0.00000000E+00
  0.00000000E+00  0.00000000E+00  0.00000000E+00  0.00000000E+00  0.00000000E+00
  0.00000000E+00  0.00000000E+00  0.00000000E+00  0.00000000E+00  0.00000000E+00
  0.00000000E+00  0.00000000E+00  0.00000000E+00  0.00000000E+00  0.00000000E+00
  0.00000000E+00  0.00000000E+00  0.00000000E+00  0.00000000E+00  0.00000000E+00
  0.00000000E+00  0.00000000E+00  0.00000000E+00  0.00000000E+00  0.00000000E+00
  0.00000000E+00  0.00000000E+00  0.00000000E+00  0.00000000E+00
ZRed-Constraint1                           R   N=          69
  2.63647030E+00  2.63584493E+00  2.07796233E+00  2.63562382E+00  2.07804735E+00
  2.63697488E+00  2.91017823E+00  2.63583740E+00  2.07809423E+00  2.63642862E+00
  2.07824707E+00  2.07795046E+00  2.02200696E+00  2.02200695E+00  2.02200695E+00
  2.09436817E+00  2.09434664E+00  2.09447050E+00  2.09454576E+00  2.09405948E+00
  2.09457924E+00  2.09429326E+00  2.09461841E+00  2.09427359E+00  2.09429025E+00
  2.09406597E+00  2.09482897E+00  2.09447721E+00  2.09459308E+00  2.09411499E+00
  2.09439550E+00  2.09453468E+00  2.09425504E+00  1.91063292E+00  1.91063292E+00
  1.91063342E+00  1.91063376E+00  1.91063320E+00  1.91063320E+00  5.64580693E-04
  3.14077668E+00 -3.14112012E+00 -9.08026013E-04  2.59777936E-04  3.14140373E+00
 -3.14124082E+00 -9.68701602E-05 -9.92101173E-04  3.14092685E+00 -3.14120378E+00
  7.15163718E-04  5.95408499E-04 -3.14153045E+00 -3.14132347E+00 -2.64027413E-04
  1.58341131E+00 -2.60537864E+00 -5.10983661E-01 -1.55785505E+00  5.36540304E-01
  2.63093528E+00  2.28817626E-04 -3.14158417E+00 -3.14083039E+00  5.41927350E-04
 -6.56396155E-04  3.14138489E+00  3.14115653E+00  1.25074812E-05
ZRed-Constraint2                           R   N=          69
  0.00000000E+00  0.00000000E+00  0.00000000E+00  0.00000000E+00  0.00000000E+00
  0.00000000E+00  0.00000000E+00  0.00000000E+00  0.00000000E+00  0.00000000E+00
  0.00000000E+00  0.00000000E+00  0.00000000E+00  0.00000000E+00  0.00000000E+00
  0.00000000E+00  0.00000000E+00  0.00000000E+00  0.00000000E+00  0.00000000E+00
  0.00000000E+00  0.00000000E+00  0.00000000E+00  0.00000000E+00  0.00000000E+00
  0.00000000E+00  0.00000000E+00  0.00000000E+00  0.00000000E+00  0.00000000E+00
  0.00000000E+00  0.00000000E+00  0.00000000E+00  0.00000000E+00  0.00000000E+00
  0.00000000E+00  0.00000000E+00  0.00000000E+00  0.00000000E+00  0.00000000E+00
  0.00000000E+00  0.00000000E+00  0.00000000E+00  0.00000000E+00  0.00000000E+00
  0.00000000E+00  0.00000000E+00  0.00000000E+00  0.00000000E+00  0.00000000E+00
  0.00000000E+00  0.00000000E+00  0.00000000E+00  0.00000000E+00  0.00000000E+00
  0.00000000E+00  0.00000000E+00  0.00000000E+00  0.00000000E+00  0.00000000E+00
  0.00000000E+00  0.00000000E+00  0.00000000E+00  0.00000000E+00  0.00000000E+00
  0.00000000E+00  0.00000000E+00  0.00000000E+00  0.00000000E+00
SymInf integers                            I   N=          26
           1           1           1           1           1           0
           0           0           0           0           0           0
           0           0           0           0           0           0
           0           0           0           0           0           0
           0           0
RotTr to input orientation                 R   N=          12
  9.99996564E-01  5.72097712E-05  2.62089896E-03  5.57738343E-05 -9.99999848E-01
  5.47949361E-04  2.62092991E-03 -5.47801301E-04 -9.99996415E-01  1.81601452E+00
  7.27947056E+00  3.95232586E-03
Number of contracted shells                I               44
Number of primitive shells                 I              109
Pure/Cartesian d shells                    I                1
Pure/Cartesian f shells                    I                0
Highest angular momentum                   I                2
Largest degree of contraction              I                6
Shell types                                I   N=          44
           0          -1          -1           2           0          -1
          -1           2           0          -1          -1           2
           0          -1          -1           2           0          -1
          -1           2           0          -1          -1           2
           0           0           0           0           0           0
           0           0           0           0           0          -1
          -1           2           0           0           0           0
           0           0
Number of primitives per shell             I   N=          44
           6           3           1           1           6           3
           1           1           6           3           1           1
           6           3           1           1           6           3
           1           1           6           3           1           1
           3           1           3           1           3           1
           3           1           3           1           6           3
           1           1           3           1           3           1
           3           1
Shell to atom map                          I   N=          44
           1           1           1           1           2           2
           2           2           3           3           3           3
           4           4           4           4           5           5
           5           5           6           6           6           6
           7           7           8           8           9           9
          10          10          11          11          12          12
          12          12          13          13          14          14
          15          15
Primitive exponents                        R   N=         109
  3.04752488E+03  4.57369518E+02  1.03948685E+02  2.92101553E+01  9.28666296E+00
  3.16392696E+00  7.86827235E+00  1.88128854E+00  5.44249258E-01  1.68714478E-01
  8.00000000E-01  3.04752488E+03  4.57369518E+02  1.03948685E+02  2.92101553E+01
  9.28666296E+00  3.16392696E+00  7.86827235E+00  1.88128854E+00  5.44249258E-01
  1.68714478E-01  8.00000000E-01  3.04752488E+03  4.57369518E+02  1.03948685E+02
  2.92101553E+01  9.28666296E+00  3.16392696E+00  7.86827235E+00  1.88128854E+00
  5.44249258E-01  1.68714478E-01  8.00000000E-01  3.04752488E+03  4.57369518E+02
  1.03948685E+02  2.92101553E+01  9.28666296E+00  3.16392696E+00  7.86827235E+00
  1.88128854E+00  5.44249258E-01  1.68714478E-01  8.00000000E-01  3.04752488E+03
  4.57369518E+02  1.03948685E+02  2.92101553E+01  9.28666296E+00  3.16392696E+00
  7.86827235E+00  1.88128854E+00  5.44249258E-01  1.68714478E-01  8.00000000E-01
  3.04752488E+03  4.57369518E+02  1.03948685E+02  2.92101553E+01  9.28666296E+00
  3.16392696E+00  7.86827235E+00  1.88128854E+00  5.44249258E-01  1.68714478E-01
  8.00000000E-01  1.87311370E+01  2.82539436E+00  6.40121692E-01  1.61277759E-01
  1.87311370E+01  2.82539436E+00  6.40121692E-01  1.61277759E-01  1.87311370E+01
  2.82539436E+00  6.40121692E-01  1.61277759E-01  1.87311370E+01  2.82539436E+00
  6.40121692E-01  1.61277759E-01  1.87311370E+01  2.82539436E+00  6.40121692E-01
  1.61277759E-01  3.04752488E+03  4.57369518E+02  1.03948685E+02  2.92101553E+01
  9.28666296E+00  3.16392696E+00  7.86827235E+00  1.88128854E+00  5.44249258E-01
  1.68714478E-01  8.00000000E-01  1.87311370E+01  2.82539436E+00  6.40121692E-01
  1.61277759E-01  1.87311370E+01  2.82539436E+00  6.40121692E-01  1.61277759E-01
  1.87311370E+01  2.82539436E+00  6.40121692E-01  1.61277759E-01
Contraction coefficients                   R   N=         109
  1.83473713E-03  1.40373228E-02  6.88426223E-02  2.32184443E-01  4.67941348E-01
  3.62311985E-01 -1.19332420E-01 -1.60854152E-01  1.14345644E+00  1.00000000E+00
  1.00000000E+00  1.83473713E-03  1.40373228E-02  6.88426223E-02  2.32184443E-01
  4.67941348E-01  3.62311985E-01 -1.19332420E-01 -1.60854152E-01  1.14345644E+00
  1.00000000E+00  1.00000000E+00  1.83473713E-03  1.40373228E-02  6.88426223E-02
  2.32184443E-01  4.67941348E-01  3.62311985E-01 -1.19332420E-01 -1.60854152E-01
  1.14345644E+00  1.00000000E+00  1.00000000E+00  1.83473713E-03  1.40373228E-02
  6.88426223E-02  2.32184443E-01  4.67941348E-01  3.62311985E-01 -1.19332420E-01
 -1.60854152E-01  1.14345644E+00  1.00000000E+00  1.00000000E+00  1.83473713E-03
  1.40373228E-02  6.88426223E-02  2.32184443E-01  4.67941348E-01  3.62311985E-01
 -1.19332420E-01 -1.60854152E-01  1.14345644E+00  1.00000000E+00  1.00000000E+00
  1.83473713E-03  1.40373228E-02  6.88426223E-02  2.32184443E-01  4.67941348E-01
  3.62311985E-01 -1.19332420E-01 -1.60854152E-01  1.14345644E+00  1.00000000E+00
  1.00000000E+00  3.34946043E-02  2.34726953E-01  8.13757326E-01  1.00000000E+00
  3.34946043E-02  2.34726953E-01  8.13757326E-01  1.00000000E+00  3.34946043E-02
  2.34726953E-01  8.13757326E-01  1.00000000E+00  3.34946043E-02  2.34726953E-01
  8.13757326E-01  1.00000000E+00  3.34946043E-02  2.34726953E-01  8.13757326E-01
  1.00000000E+00  1.83473713E-03  1.40373228E-02  6.88426223E-02  2.32184443E-01
  4.67941348E-01  3.62311985E-01 -1.19332420E-01 -1.60854152E-01  1.14345644E+00
  1.00000000E+00  1.00000000E+00  3.34946043E-02  2.34726953E-01  8.13757326E-01
  1.00000000E+00  3.34946043E-02  2.34726953E-01  8.13757326E-01  1.00000000E+00
  3.34946043E-02  2.34726953E-01  8.13757326E-01  1.00000000E+00
P(S=P) Contraction coefficients            R   N=         109
  0.00000000E+00  0.00000000E+00  0.00000000E+00  0.00000000E+00  0.00000000E+00
  0.00000000E+00  6.89990666E-02  3.16423961E-01  7.44308291E-01  1.00000000E+00
  0.00000000E+00  0.00000000E+00  0.00000000E+00  0.00000000E+00  0.00000000E+00
  0.00000000E+00  0.00000000E+00  6.89990666E-02  3.16423961E-01  7.44308291E-01
  1.00000000E+00  0.00000000E+00  0.00000000E+00  0.00000000E+00  0.00000000E+00
  0.00000000E+00  0.00000000E+00  0.00000000E+00  6.89990666E-02  3.16423961E-01
  7.44308291E-01  1.00000000E+00  0.00000000E+00  0.00000000E+00  0.00000000E+00
  0.00000000E+00  0.00000000E+00  0.00000000E+00  0.00000000E+00  6.89990666E-02
  3.16423961E-01  7.44308291E-01  1.00000000E+00  0.00000000E+00  0.00000000E+00
  0.00000000E+00  0.00000000E+00  0.00000000E+00  0.00000000E+00  0.00000000E+00
  6.89990666E-02  3.16423961E-01  7.44308291E-01  1.00000000E+00  0.00000000E+00
  0.00000000E+00  0.00000000E+00  0.00000000E+00  0.00000000E+00  0.00000000E+00
  0.00000000E+00  6.89990666E-02  3.16423961E-01  7.44308291E-01  1.00000000E+00
  0.00000000E+00  0.00000000E+00  0.00000000E+00  0.00000000E+00  0.00000000E+00
  0.00000000E+00  0.00000000E+00  0.00000000E+00  0.00000000E+00  0.00000000E+00
  0.00000000E+00  0.00000000E+00  0.00000000E+00  0.00000000E+00  0.00000000E+00
  0.00000000E+00  0.00000000E+00  0.00000000E+00  0.00000000E+00  0.00000000E+00
  0.00000000E+00  0.00000000E+00  0.00000000E+00  0.00000000E+00  0.00000000E+00
  0.00000000E+00  0.00000000E+00  6.89990666E-02  3.16423961E-01  7.44308291E-01
  1.00000000E+00  0.00000000E+00  0.00000000E+00  0.00000000E+00  0.00000000E+00
  0.00000000E+00  0.00000000E+00  0.00000000E+00  0.00000000E+00  0.00000000E+00
  0.00000000E+00  0.00000000E+00  0.00000000E+00  0.00000000E+00
Coordinates of each shell                  R   N=         132
 -2.27165466E+00  2.27988861E+00  4.20361406E-03 -2.27165466E+00  2.27988861E+00
  4.20361406E-03 -2.27165466E+00  2.27988861E+00  4.20361406E-03 -2.27165466E+00
  2.27988861E+00  4.20361406E-03  3.68098904E-01  2.27465244E+00 -1.74162718E-02
  3.68098904E-01  2.27465244E+00 -1.74162718E-02  3.68098904E-01  2.27465244E+00
 -1.74162718E-02  3.68098904E-01  2.27465244E+00 -1.74162718E-02  1.72870789E+00
  6.44467418E-04 -2.28712727E-02  1.72870789E+00  6.44467418E-04 -2.28712727E-02
  1.72870789E+00  6.44467418E-04 -2.28712727E-02  1.72870789E+00  6.44467418E-04
 -2.28712727E-02  3.68920701E-01 -2.27415159E+00 -1.74228931E-02  3.68920701E-01
 -2.27415159E+00 -1.74228931E-02  3.68920701E-01 -2.27415159E+00 -1.74228931E-02
  3.68920701E-01 -2.27415159E+00 -1.74228931E-02 -2.27057581E+00 -2.28049085E+00
  4.21483322E-03 -2.27057581E+00 -2.28049085E+00  4.21483322E-03 -2.27057581E+00
 -2.28049085E+00  4.21483322E-03 -2.27057581E+00 -2.28049085E+00  4.21483322E-03
 -3.60277513E+00 -4.77688201E-04  1.62451309E-02 -3.60277513E+00 -4.77688201E-04
  1.62451309E-02 -3.60277513E+00 -4.77688201E-04  1.62451309E-02 -3.60277513E+00
 -4.77688201E-04  1.62451309E-02 -3.28764532E+00  4.06525747E+00  3.68320798E-03
 -3.28764532E+00  4.06525747E+00  3.68320798E-03  1.38911748E+00  4.05890639E+00
 -3.38009542E-02  1.38911748E+00  4.05890639E+00 -3.38009542E-02  1.39082759E+00
 -4.05792399E+00 -3.39111045E-02  1.39082759E+00 -4.05792399E+00 -3.39111045E-02
 -3.28594736E+00 -4.06621314E+00  3.70958743E-03 -3.28594736E+00 -4.06621314E+00
  3.70958743E-03 -5.65632061E+00 -9.81347813E-04  2.70721694E-02 -5.65632061E+00
 -9.81347813E-04  2.70721694E-02  4.58499571E+00  2.56497801E-04  1.74237513E-02
  4.58499571E+00  2.56497801E-04  1.74237513E-02  4.58499571E+00  2.56497801E-04
  1.74237513E-02  4.58499571E+00  2.56497801E-04  1.74237513E-02  5.30195029E+00
 -2.37290695E-02  1.96501250E+00  5.30195029E+00 -2.37290695E-02  1.96501250E+00
  5.35676390E+00 -1.66536403E+00 -9.39141743E-01  5.35676390E+00 -1.66536403E+00
 -9.39141743E-01  5.35694844E+00  1.68811636E+00 -8.98885019E-01  5.35694844E+00
  1.68811636E+00 -8.98885019E-01
Num ILSW                                   I              100
ILSW                                       I   N=         100
           0           1           0           1           2           0
           0           0           0           0         402          -1
           5           0           0           0           2           0
           0           0           0           0           1           0
           1           0           0           0           0           0
           0           0      100000           0          -1           0
           0           0           0           0           0           0
           0           0           0           1           0           0
           0 -2000000000           1           0           0           0
           0           0         131          52           0           0
           0           0           5           0           0           0
           0           0           0          15           0           1
           0           0           0           0           0           0
           0           0           0           0           0           0
           0           0           0           0           0           0
           0           0           0           0           0           0
           0           0           0           0
Num RLSW                                   I               52
RLSW                                       R   N=          52
  8.00000000E-01  7.20000000E-01  1.00000000E+00  8.10000000E-01  2.00000000E-01
  0.00000000E+00  0.00000000E+00  1.00000000E+00  0.00000000E+00  0.00000000E+00
  0.00000000E+00  0.00000000E+00  1.00000000E+00  0.00000000E+00  0.00000000E+00
  0.00000000E+00  0.00000000E+00  1.00000000E+00  0.00000000E+00  0.00000000E+00
  0.00000000E+00  0.00000000E+00  1.00000000E+00  0.00000000E+00  0.00000000E+00
  0.00000000E+00  0.00000000E+00  1.00000000E+00  0.00000000E+00  0.00000000E+00
  0.00000000E+00  0.00000000E+00  1.00000000E+00  0.00000000E+00  0.00000000E+00
  0.00000000E+00  0.00000000E+00  0.00000000E+00  1.00000000E+00  1.00000000E+00
  0.00000000E+00  1.00000000E+00  0.00000000E+00  0.00000000E+00  0.00000000E+00
  0.00000000E+00  0.00000000E+00  0.00000000E+00  0.00000000E+00  0.00000000E+00
  0.00000000E+00  0.00000000E+00
MxBond                                     I                4
NBond                                      I   N=          15
           3           3           3           3           3           3
           1           1           1           1           1           4
           1           1           1
IBond                                      I   N=          60
           2           6           7           0           1           3
           8           0           2           4          12           0
           3           5           9           0           4           6
          10           0           1           5          11           0
           1           0           0           0           2           0
           0           0           4           0           0           0
           5           0           0           0           6           0
           0           0           3          13          14          15
          12           0           0           0          12           0
           0           0          12           0           0           0
RBond                                      R   N=          60
  1.50000000E+00  1.50000000E+00  1.00000000E+00  0.00000000E+00  1.50000000E+00
  1.50000000E+00  1.00000000E+00  0.00000000E+00  1.50000000E+00  1.50000000E+00
  1.00000000E+00  0.00000000E+00  1.50000000E+00  1.50000000E+00  1.00000000E+00
  0.00000000E+00  1.50000000E+00  1.50000000E+00  1.00000000E+00  0.00000000E+00
  1.50000000E+00  1.50000000E+00  1.00000000E+00  0.00000000E+00  1.00000000E+00
  0.00000000E+00  0.00000000E+00  0.00000000E+00  1.00000000E+00  0.00000000E+00
  0.00000000E+00  0.00000000E+00  1.00000000E+00  0.00000000E+00  0.00000000E+00