 Entering Gaussian System, Link 0=g16
 Input=resin5.gjf
 Output=resin5.log
 Initial command:
 /home/Data/zhangqian/application/g16/l1.exe "./Gau-79339.inp" -scrdir="./"
 Default is to use a total of  24 processors:
                               24 via shared-memory
                                1 via Linda
 Entering Link 1 = /home/Data/zhangqian/application/g16/l1.exe PID=     79341.
  
 Copyright (c) 1988,1990,1992,1993,1995,1998,2003,2009,2016,
            Gaussian, Inc.  All Rights Reserved.
  
 This is part of the Gaussian(R) 16 program.  It is based on
 the Gaussian(R) 09 system (copyright 2009, Gaussian, Inc.),
 the Gaussian(R) 03 system (copyright 2003, Gaussian, Inc.),
 the Gaussian(R) 98 system (copyright 1998, Gaussian, Inc.),
 the Gaussian(R) 94 system (copyright 1995, Gaussian, Inc.),
 the Gaussian 92(TM) system (copyright 1992, Gaussian, Inc.),
 the Gaussian 90(TM) system (copyright 1990, Gaussian, Inc.),
 the Gaussian 88(TM) system (copyright 1988, Gaussian, Inc.),
 the Gaussian 86(TM) system (copyright 1986, Carnegie Mellon
 University), and the Gaussian 82(TM) system (copyright 1983,
 Carnegie Mellon University). Gaussian is a federally registered
 trademark of Gaussian, Inc.
  
 This software contains proprietary and confidential information,
 including trade secrets, belonging to Gaussian, Inc.
  
 This software is provided under written license and may be
 used, copied, transmitted, or stored only in accord with that
 written license.
  
 The following legend is applicable only to US Government
 contracts under FAR:
  
                    RESTRICTED RIGHTS LEGEND
  
 Use, reproduction and disclosure by the US Government is
 subject to restrictions as set forth in subparagraphs (a)
 and (c) of the Commercial Computer Software - Restricted
 Rights clause in FAR 52.227-19.
  
 Gaussian, Inc.
 340 Quinnipiac St., Bldg. 40, Wallingford CT 06492
  
  
 ---------------------------------------------------------------
 Warning -- This program may not be used in any manner that
 competes with the business of Gaussian, Inc. or will provide
 assistance to any competitor of Gaussian, Inc.  The licensee
 of this program is prohibited from giving any competitor of
 Gaussian, Inc. access to this program.  By using this program,
 the user acknowledges that Gaussian, Inc. is engaged in the
 business of creating and licensing software in the field of
 computational chemistry and represents and warrants to the
 licensee that it is not a competitor of Gaussian, Inc. and that
 it will not use this program in any manner prohibited above.
 ---------------------------------------------------------------
  

 Cite this work as:
 Gaussian 16, Revision A.03,
 M. J. Frisch, G. W. Trucks, H. B. Schlegel, G. E. Scuseria, 
 M. A. Robb, J. R. Cheeseman, G. Scalmani, V. Barone, 
 G. A. Petersson, H. Nakatsuji, X. Li, M. Caricato, A. V. Marenich, 
 J. Bloino, B. G. Janesko, R. Gomperts, B. Mennucci, H. P. Hratchian, 
 J. V. Ortiz, A. F. Izmaylov, J. L. Sonnenberg, D. Williams-Young, 
 F. Ding, F. Lipparini, F. Egidi, J. Goings, B. Peng, A. Petrone, 
 T. Henderson, D. Ranasinghe, V. G. Zakrzewski, J. Gao, N. Rega, 
 G. Zheng, W. Liang, M. Hada, M. Ehara, K. Toyota, R. Fukuda, 
 J. Hasegawa, M. Ishida, T. Nakajima, Y. Honda, O. Kitao, H. Nakai, 
 T. Vreven, K. Throssell, J. A. Montgomery, Jr., J. E. Peralta, 
 F. Ogliaro, M. J. Bearpark, J. J. Heyd, E. N. Brothers, K. N. Kudin, 
 V. N. Staroverov, T. A. Keith, R. Kobayashi, J. Normand, 
 K. Raghavachari, A. P. Rendell, J. C. Burant, S. S. Iyengar, 
 J. Tomasi, M. Cossi, J. M. Millam, M. Klene, C. Adamo, R. Cammi, 
 J. W. Ochterski, R. L. Martin, K. Morokuma, O. Farkas, 
 J. B. Foresman, and D. J. Fox, Gaussian, Inc., Wallingford CT, 2016.
 
 ******************************************
 Gaussian 16:  ES64L-G16RevA.03 25-Dec-2016
                 8-Nov-2023 
 ******************************************
 %nprocshared=24
 Will use up to   24 processors via shared memory.
 %mem=40GB
 %chk=resin5.chk
 ----------------------------------------------------------------------
 #p opt b3lyp/6-31g(d) scrf=(solvent=water,pcm) empiricaldispersion=gd3
 ----------------------------------------------------------------------
 1/18=20,19=15,26=3,38=1/1,3;
 2/9=110,12=2,17=6,18=5,40=1/2;
 3/5=1,6=6,7=1,11=2,25=1,30=1,70=2201,71=1,72=1,74=-5,124=31/1,2,3;
 4//1;
 5/5=2,38=5,53=1/2;
 6/7=2,8=2,9=2,10=2,28=1/1;
 7//1,2,3,16;
 1/18=20,19=15,26=3/3(2);
 2/9=110/2;
 99//99;
 2/9=110/2;
 3/5=1,6=6,7=1,11=2,25=1,30=1,70=2205,71=1,72=1,74=-5,124=31/1,2,3;
 4/5=5,16=3,69=1/1;
 5/5=2,38=5,53=1/2;
 7//1,2,3,16;
 1/18=20,19=15,26=3/3(-5);
 2/9=110/2;
 6/7=2,8=2,9=2,10=2,19=2,28=1/1;
 99/9=1/99;
 Leave Link    1 at Wed Nov  8 22:29:35 2023, MaxMem=  5368709120 cpu:               1.1 elap:               0.1
 (Enter /home/Data/zhangqian/application/g16/l101.exe)
 -------------------
 Title Card Required
 -------------------
 Symbolic Z-matrix:
 Charge =  0 Multiplicity = 1
 C                    -20.67684  -8.47309   2.54657 
 C                    -19.30404  -8.47309   2.54657 
 C                    -18.58211  -7.24797   2.54657 
 C                    -19.29998  -6.0241    2.54694 
 C                    -20.72139  -6.05348   2.54709 
 C                    -21.3929  -7.25145   2.5468 
 H                    -16.61303  -8.17293   2.54632 
 H                    -18.73925  -9.41741   2.54634 
 C                    -17.16038  -7.21843   2.5463 
 C                    -18.57723  -4.79938   2.54705 
 H                    -21.26863  -5.09902   2.54717 
 H                    -22.49253  -7.27782   2.5469 
 C                    -17.20436  -4.79931   2.54678 
 C                    -16.48835  -6.0212    2.54632 
 C                    -14.9488  -5.98415   2.54606 
 C                    -16.41937  -3.4744    2.54653 
 C                    -14.21111  -4.63236   2.53677 
 C                    -14.87947  -3.49177   2.54653 
 H                    -14.61952  -6.51809   3.41289 
 H                    -14.61952  -6.52996   1.68666 
 H                    -13.56589  -4.62318   3.39029 
 H                    -13.58941  -4.6222    1.66597 
 H                    -14.56125  -2.93641   1.68909 
 H                    -14.56142  -2.95127   3.41348 
 C                    -19.36721  -3.47744   2.54741 
 C                    -18.61738  -2.13232   2.54778 
 C                    -17.17428  -2.13212   2.54628 
 H                    -19.99952  -3.48672   1.68428 
 H                    -19.99952  -3.48719   3.41054 
 H                    -16.85455  -1.58627   3.40925 
 H                    -16.85635  -1.58761   1.68179 
 H                    -16.41937  -3.4742    3.61653 
 C                    -19.39748  -0.80453   2.54974 
 H                    -20.00584  -0.74958   3.42825 
 H                    -18.7084   0.014     2.54131 
 H                    -18.61782  -2.13057   3.61778 
 C                    -20.29377  -0.7339    1.29943 
 H                    -21.19434  -1.28452   1.47459 
 H                    -20.53505   0.28745   1.09078 
 H                    -19.77466  -1.15556   0.46418 
 S                    -21.56178  -10.01753   2.54627 
 C                    -22.55809  -10.13174   4.01689 
 H                    -23.37403  -9.44285   3.94931 
 H                    -21.96042  -9.89395   4.87196 
 C                    -23.10591  -11.56429   4.15582 
 H                    -23.68426  -11.81052   3.28991 
 H                    -22.29025  -12.25079   4.24697 
 C                    -23.99529  -11.65441   5.4098 
 H                    -23.41325  -11.42284   6.27727 
 C                    -24.56054  -13.08128   5.53678 
 H                    -25.18131  -13.14295   6.40612 
 H                    -25.13969  -13.31413   4.66772 
 H                    -23.75337  -13.77816   5.62472 
 C                    -25.15713  -10.65093   5.28831 
 H                    -24.83052  -9.68584   5.61516 
 H                    -25.47367  -10.59362   4.26781 
 H                    -25.97444  -10.9761   5.89754 
 
 ITRead=  0  0  0  0  0  0  0  0  0  0  0  0  0  0  0  0  0  0  0  0
 ITRead=  0  0  0  0  0  0  0  0  0  0  0  0  0  0  0  0  0  0  0  0
 ITRead=  0  0  0  0  0  0  0  0  0  0  0  0  0  0  0  0  0
 MicOpt= -1 -1 -1 -1 -1 -1 -1 -1 -1 -1 -1 -1 -1 -1 -1 -1 -1 -1 -1 -1
 MicOpt= -1 -1 -1 -1 -1 -1 -1 -1 -1 -1 -1 -1 -1 -1 -1 -1 -1 -1 -1 -1
 MicOpt= -1 -1 -1 -1 -1 -1 -1 -1 -1 -1 -1 -1 -1 -1 -1 -1 -1
 NAtoms=     57 NQM=       57 NQMF=       0 NMMI=      0 NMMIF=      0
                NMic=       0 NMicF=      0.
                    Isotopes and Nuclear Properties:
 (Nuclear quadrupole moments (NQMom) in fm**2, nuclear magnetic moments (NMagM)
  in nuclear magnetons)

  Atom         1           2           3           4           5           6           7           8           9          10
 IAtWgt=          12          12          12          12          12          12           1           1          12          12
 AtmWgt=  12.0000000  12.0000000  12.0000000  12.0000000  12.0000000  12.0000000   1.0078250   1.0078250  12.0000000  12.0000000
 NucSpn=           0           0           0           0           0           0           1           1           0           0
 AtZEff=  -0.0000000  -0.0000000  -0.0000000  -0.0000000  -0.0000000  -0.0000000  -0.0000000  -0.0000000  -0.0000000  -0.0000000
 NQMom=    0.0000000   0.0000000   0.0000000   0.0000000   0.0000000   0.0000000   0.0000000   0.0000000   0.0000000   0.0000000
 NMagM=    0.0000000   0.0000000   0.0000000   0.0000000   0.0000000   0.0000000   2.7928460   2.7928460   0.0000000   0.0000000
 AtZNuc=   6.0000000   6.0000000   6.0000000   6.0000000   6.0000000   6.0000000   1.0000000   1.0000000   6.0000000   6.0000000

  Atom        11          12          13          14          15          16          17          18          19          20
 IAtWgt=           1           1          12          12          12          12          12          12           1           1
 AtmWgt=   1.0078250   1.0078250  12.0000000  12.0000000  12.0000000  12.0000000  12.0000000  12.0000000   1.0078250   1.0078250
 NucSpn=           1           1           0           0           0           0           0           0           1           1
 AtZEff=  -0.0000000  -0.0000000  -0.0000000  -0.0000000  -0.0000000  -0.0000000  -0.0000000  -0.0000000  -0.0000000  -0.0000000
 NQMom=    0.0000000   0.0000000   0.0000000   0.0000000   0.0000000   0.0000000   0.0000000   0.0000000   0.0000000   0.0000000
 NMagM=    2.7928460   2.7928460   0.0000000   0.0000000   0.0000000   0.0000000   0.0000000   0.0000000   2.7928460   2.7928460
 AtZNuc=   1.0000000   1.0000000   6.0000000   6.0000000   6.0000000   6.0000000   6.0000000   6.0000000   1.0000000   1.0000000

  Atom        21          22          23          24          25          26          27          28          29          30
 IAtWgt=           1           1           1           1          12          12          12           1           1           1
 AtmWgt=   1.0078250   1.0078250   1.0078250   1.0078250  12.0000000  12.0000000  12.0000000   1.0078250   1.0078250   1.0078250
 NucSpn=           1           1           1           1           0           0           0           1           1           1
 AtZEff=  -0.0000000  -0.0000000  -0.0000000  -0.0000000  -0.0000000  -0.0000000  -0.0000000  -0.0000000  -0.0000000  -0.0000000
 NQMom=    0.0000000   0.0000000   0.0000000   0.0000000   0.0000000   0.0000000   0.0000000   0.0000000   0.0000000   0.0000000
 NMagM=    2.7928460   2.7928460   2.7928460   2.7928460   0.0000000   0.0000000   0.0000000   2.7928460   2.7928460   2.7928460
 AtZNuc=   1.0000000   1.0000000   1.0000000   1.0000000   6.0000000   6.0000000   6.0000000   1.0000000   1.0000000   1.0000000

  Atom        31          32          33          34          35          36          37          38          39          40
 IAtWgt=           1           1          12           1           1           1          12           1           1           1
 AtmWgt=   1.0078250   1.0078250  12.0000000   1.0078250   1.0078250   1.0078250  12.0000000   1.0078250   1.0078250   1.0078250
 NucSpn=           1           1           0           1           1           1           0           1           1           1
 AtZEff=  -0.0000000  -0.0000000  -0.0000000  -0.0000000  -0.0000000  -0.0000000  -0.0000000  -0.0000000  -0.0000000  -0.0000000
 NQMom=    0.0000000   0.0000000   0.0000000   0.0000000   0.0000000   0.0000000   0.0000000   0.0000000   0.0000000   0.0000000
 NMagM=    2.7928460   2.7928460   0.0000000   2.7928460   2.7928460   2.7928460   0.0000000   2.7928460   2.7928460   2.7928460
 AtZNuc=   1.0000000   1.0000000   6.0000000   1.0000000   1.0000000   1.0000000   6.0000000   1.0000000   1.0000000   1.0000000

  Atom        41          42          43          44          45          46          47          48          49          50
 IAtWgt=          32          12           1           1          12           1           1          12           1          12
 AtmWgt=  31.9720718  12.0000000   1.0078250   1.0078250  12.0000000   1.0078250   1.0078250  12.0000000   1.0078250  12.0000000
 NucSpn=           0           0           1           1           0           1           1           0           1           0
 AtZEff=  -0.0000000  -0.0000000  -0.0000000  -0.0000000  -0.0000000  -0.0000000  -0.0000000  -0.0000000  -0.0000000  -0.0000000
 NQMom=    0.0000000   0.0000000   0.0000000   0.0000000   0.0000000   0.0000000   0.0000000   0.0000000   0.0000000   0.0000000
 NMagM=    0.0000000   0.0000000   2.7928460   2.7928460   0.0000000   2.7928460   2.7928460   0.0000000   2.7928460   0.0000000
 AtZNuc=  16.0000000   6.0000000   1.0000000   1.0000000   6.0000000   1.0000000   1.0000000   6.0000000   1.0000000   6.0000000

  Atom        51          52          53          54          55          56          57
 IAtWgt=           1           1           1          12           1           1           1
 AtmWgt=   1.0078250   1.0078250   1.0078250  12.0000000   1.0078250   1.0078250   1.0078250
 NucSpn=           1           1           1           0           1           1           1
 AtZEff=  -0.0000000  -0.0000000  -0.0000000  -0.0000000  -0.0000000  -0.0000000  -0.0000000
 NQMom=    0.0000000   0.0000000   0.0000000   0.0000000   0.0000000   0.0000000   0.0000000
 NMagM=    2.7928460   2.7928460   2.7928460   0.0000000   2.7928460   2.7928460   2.7928460
 AtZNuc=   1.0000000   1.0000000   1.0000000   6.0000000   1.0000000   1.0000000   1.0000000
 Leave Link  101 at Wed Nov  8 22:29:35 2023, MaxMem=  5368709120 cpu:              14.5 elap:               0.6
 (Enter /home/Data/zhangqian/application/g16/l103.exe)

 GradGradGradGradGradGradGradGradGradGradGradGradGradGradGradGradGradGrad
 Berny optimization.
 Initialization pass.
                           ----------------------------
                           !    Initial Parameters    !
                           ! (Angstroms and Degrees)  !
 --------------------------                            --------------------------
 ! Name  Definition              Value          Derivative Info.                !
 --------------------------------------------------------------------------------
 ! R1    R(1,2)                  1.3728         estimate D2E/DX2                !
 ! R2    R(1,6)                  1.416          estimate D2E/DX2                !
 ! R3    R(1,41)                 1.78           estimate D2E/DX2                !
 ! R4    R(2,3)                  1.422          estimate D2E/DX2                !
 ! R5    R(2,8)                  1.1003         estimate D2E/DX2                !
 ! R6    R(3,4)                  1.4189         estimate D2E/DX2                !
 ! R7    R(3,9)                  1.422          estimate D2E/DX2                !
 ! R8    R(4,5)                  1.4217         estimate D2E/DX2                !
 ! R9    R(4,10)                 1.4221         estimate D2E/DX2                !
 ! R10   R(5,6)                  1.3733         estimate D2E/DX2                !
 ! R11   R(5,11)                 1.1002         estimate D2E/DX2                !
 ! R12   R(6,12)                 1.1            estimate D2E/DX2                !
 ! R13   R(7,9)                  1.1003         estimate D2E/DX2                !
 ! R14   R(9,14)                 1.3729         estimate D2E/DX2                !
 ! R15   R(10,13)                1.3729         estimate D2E/DX2                !
 ! R16   R(10,25)                1.54           estimate D2E/DX2                !
 ! R17   R(13,14)                1.4162         estimate D2E/DX2                !
 ! R18   R(13,16)                1.54           estimate D2E/DX2                !
 ! R19   R(14,15)                1.54           estimate D2E/DX2                !
 ! R20   R(15,17)                1.54           estimate D2E/DX2                !
 ! R21   R(15,19)                1.07           estimate D2E/DX2                !
 ! R22   R(15,20)                1.07           estimate D2E/DX2                !
 ! R23   R(16,18)                1.54           estimate D2E/DX2                !
 ! R24   R(16,27)                1.54           estimate D2E/DX2                !
 ! R25   R(16,32)                1.07           estimate D2E/DX2                !
 ! R26   R(17,18)                1.322          estimate D2E/DX2                !
 ! R27   R(17,21)                1.07           estimate D2E/DX2                !
 ! R28   R(17,22)                1.07           estimate D2E/DX2                !
 ! R29   R(18,23)                1.07           estimate D2E/DX2                !
 ! R30   R(18,24)                1.07           estimate D2E/DX2                !
 ! R31   R(25,26)                1.54           estimate D2E/DX2                !
 ! R32   R(25,28)                1.07           estimate D2E/DX2                !
 ! R33   R(25,29)                1.07           estimate D2E/DX2                !
 ! R34   R(26,27)                1.4431         estimate D2E/DX2                !
 ! R35   R(26,33)                1.54           estimate D2E/DX2                !
 ! R36   R(26,36)                1.07           estimate D2E/DX2                !
 ! R37   R(27,30)                1.07           estimate D2E/DX2                !
 ! R38   R(27,31)                1.07           estimate D2E/DX2                !
 ! R39   R(33,34)                1.07           estimate D2E/DX2                !
 ! R40   R(33,35)                1.07           estimate D2E/DX2                !
 ! R41   R(33,37)                1.54           estimate D2E/DX2                !
 ! R42   R(37,38)                1.07           estimate D2E/DX2                !
 ! R43   R(37,39)                1.07           estimate D2E/DX2                !
 ! R44   R(37,40)                1.07           estimate D2E/DX2                !
 ! R45   R(41,42)                1.78           estimate D2E/DX2                !
 ! R46   R(42,43)                1.07           estimate D2E/DX2                !
 ! R47   R(42,44)                1.07           estimate D2E/DX2                !
 ! R48   R(42,45)                1.54           estimate D2E/DX2                !
 ! R49   R(45,46)                1.07           estimate D2E/DX2                !
 ! R50   R(45,47)                1.07           estimate D2E/DX2                !
 ! R51   R(45,48)                1.54           estimate D2E/DX2                !
 ! R52   R(48,49)                1.07           estimate D2E/DX2                !
 ! R53   R(48,50)                1.54           estimate D2E/DX2                !
 ! R54   R(48,54)                1.54           estimate D2E/DX2                !
 ! R55   R(50,51)                1.07           estimate D2E/DX2                !
 ! R56   R(50,52)                1.07           estimate D2E/DX2                !
 ! R57   R(50,53)                1.07           estimate D2E/DX2                !
 ! R58   R(54,55)                1.07           estimate D2E/DX2                !
 ! R59   R(54,56)                1.07           estimate D2E/DX2                !
 ! R60   R(54,57)                1.07           estimate D2E/DX2                !
 ! A1    A(2,1,6)              120.3763         estimate D2E/DX2                !
 ! A2    A(2,1,41)             119.8119         estimate D2E/DX2                !
 ! A3    A(6,1,41)             119.8119         estimate D2E/DX2                !
 ! A4    A(1,2,3)              120.5099         estimate D2E/DX2                !
 ! A5    A(1,2,8)              120.8832         estimate D2E/DX2                !
 ! A6    A(3,2,8)              118.6069         estimate D2E/DX2                !
 ! A7    A(2,3,4)              119.0959         estimate D2E/DX2                !
 ! A8    A(2,3,9)              121.7004         estimate D2E/DX2                !
 ! A9    A(4,3,9)              119.2037         estimate D2E/DX2                !
 ! A10   A(3,4,5)              119.2103         estimate D2E/DX2                !
 ! A11   A(3,4,10)             119.0596         estimate D2E/DX2                !
 ! A12   A(5,4,10)             121.73           estimate D2E/DX2                !
 ! A13   A(4,5,6)              120.4559         estimate D2E/DX2                !
 ! A14   A(4,5,11)             118.6441         estimate D2E/DX2                !
 ! A15   A(6,5,11)             120.8999         estimate D2E/DX2                !
 ! A16   A(1,6,5)              120.3516         estimate D2E/DX2                !
 ! A17   A(1,6,12)             119.0027         estimate D2E/DX2                !
 ! A18   A(5,6,12)             120.6457         estimate D2E/DX2                !
 ! A19   A(3,9,7)              118.6409         estimate D2E/DX2                !
 ! A20   A(3,9,14)             120.4968         estimate D2E/DX2                !
 ! A21   A(7,9,14)             120.8623         estimate D2E/DX2                !
 ! A22   A(4,10,13)            120.5491         estimate D2E/DX2                !
 ! A23   A(4,10,25)            118.5913         estimate D2E/DX2                !
 ! A24   A(13,10,25)           120.8596         estimate D2E/DX2                !
 ! A25   A(10,13,14)           120.3669         estimate D2E/DX2                !
 ! A26   A(10,13,16)           120.6492         estimate D2E/DX2                !
 ! A27   A(14,13,16)           118.9839         estimate D2E/DX2                !
 ! A28   A(9,14,13)            120.3239         estimate D2E/DX2                !
 ! A29   A(9,14,15)            120.685          estimate D2E/DX2                !
 ! A30   A(13,14,15)           118.991          estimate D2E/DX2                !
 ! A31   A(14,15,17)           120.0            estimate D2E/DX2                !
 ! A32   A(14,15,19)           107.1877         estimate D2E/DX2                !
 ! A33   A(14,15,20)           107.1877         estimate D2E/DX2                !
 ! A34   A(17,15,19)           107.1877         estimate D2E/DX2                !
 ! A35   A(17,15,20)           107.1877         estimate D2E/DX2                !
 ! A36   A(19,15,20)           107.5431         estimate D2E/DX2                !
 ! A37   A(13,16,18)           120.0            estimate D2E/DX2                !
 ! A38   A(13,16,27)           120.0            estimate D2E/DX2                !
 ! A39   A(13,16,32)            90.0            estimate D2E/DX2                !
 ! A40   A(18,16,27)           120.0            estimate D2E/DX2                !
 ! A41   A(18,16,32)            90.0            estimate D2E/DX2                !
 ! A42   A(27,16,32)            90.0            estimate D2E/DX2                !
 ! A43   A(15,17,18)           121.0043         estimate D2E/DX2                !
 ! A44   A(15,17,21)           106.9518         estimate D2E/DX2                !
 ! A45   A(15,17,22)           106.9518         estimate D2E/DX2                !
 ! A46   A(18,17,21)           106.9518         estimate D2E/DX2                !
 ! A47   A(18,17,22)           106.9518         estimate D2E/DX2                !
 ! A48   A(21,17,22)           107.3811         estimate D2E/DX2                !
 ! A49   A(16,18,17)           121.0146         estimate D2E/DX2                !
 ! A50   A(16,18,23)           106.9494         estimate D2E/DX2                !
 ! A51   A(16,18,24)           106.9494         estimate D2E/DX2                !
 ! A52   A(17,18,23)           106.9494         estimate D2E/DX2                !
 ! A53   A(17,18,24)           106.9494         estimate D2E/DX2                !
 ! A54   A(23,18,24)           107.3794         estimate D2E/DX2                !
 ! A55   A(10,25,26)           120.0            estimate D2E/DX2                !
 ! A56   A(10,25,28)           107.1877         estimate D2E/DX2                !
 ! A57   A(10,25,29)           107.1877         estimate D2E/DX2                !
 ! A58   A(26,25,28)           107.1877         estimate D2E/DX2                !
 ! A59   A(26,25,29)           107.1877         estimate D2E/DX2                !
 ! A60   A(28,25,29)           107.5431         estimate D2E/DX2                !
 ! A61   A(25,26,27)           119.1455         estimate D2E/DX2                !
 ! A62   A(25,26,33)           120.4273         estimate D2E/DX2                !
 ! A63   A(25,26,36)            90.084          estimate D2E/DX2                !
 ! A64   A(27,26,33)           120.4273         estimate D2E/DX2                !
 ! A65   A(27,26,36)            90.084          estimate D2E/DX2                !
 ! A66   A(33,26,36)            89.8342         estimate D2E/DX2                !
 ! A67   A(16,27,26)           119.3457         estimate D2E/DX2                !
 ! A68   A(16,27,30)           107.3398         estimate D2E/DX2                !
 ! A69   A(16,27,31)           107.3398         estimate D2E/DX2                !
 ! A70   A(26,27,30)           107.3398         estimate D2E/DX2                !
 ! A71   A(26,27,31)           107.3398         estimate D2E/DX2                !
 ! A72   A(30,27,31)           107.6509         estimate D2E/DX2                !
 ! A73   A(26,33,34)           109.4712         estimate D2E/DX2                !
 ! A74   A(26,33,35)           109.4712         estimate D2E/DX2                !
 ! A75   A(26,33,37)           109.4712         estimate D2E/DX2                !
 ! A76   A(34,33,35)           109.4712         estimate D2E/DX2                !
 ! A77   A(34,33,37)           109.4713         estimate D2E/DX2                !
 ! A78   A(35,33,37)           109.4712         estimate D2E/DX2                !
 ! A79   A(33,37,38)           109.4712         estimate D2E/DX2                !
 ! A80   A(33,37,39)           109.4712         estimate D2E/DX2                !
 ! A81   A(33,37,40)           109.4712         estimate D2E/DX2                !
 ! A82   A(38,37,39)           109.4713         estimate D2E/DX2                !
 ! A83   A(38,37,40)           109.4712         estimate D2E/DX2                !
 ! A84   A(39,37,40)           109.4712         estimate D2E/DX2                !
 ! A85   A(1,41,42)            109.5            estimate D2E/DX2                !
 ! A86   A(41,42,43)           109.4712         estimate D2E/DX2                !
 ! A87   A(41,42,44)           109.4712         estimate D2E/DX2                !
 ! A88   A(41,42,45)           109.4712         estimate D2E/DX2                !
 ! A89   A(43,42,44)           109.4712         estimate D2E/DX2                !
 ! A90   A(43,42,45)           109.4713         estimate D2E/DX2                !
 ! A91   A(44,42,45)           109.4712         estimate D2E/DX2                !
 ! A92   A(42,45,46)           109.4712         estimate D2E/DX2                !
 ! A93   A(42,45,47)           109.4712         estimate D2E/DX2                !
 ! A94   A(42,45,48)           109.4712         estimate D2E/DX2                !
 ! A95   A(46,45,47)           109.4712         estimate D2E/DX2                !
 ! A96   A(46,45,48)           109.4713         estimate D2E/DX2                !
 ! A97   A(47,45,48)           109.4712         estimate D2E/DX2                !
 ! A98   A(45,48,49)           109.4712         estimate D2E/DX2                !
 ! A99   A(45,48,50)           109.4712         estimate D2E/DX2                !
 ! A100  A(45,48,54)           109.4712         estimate D2E/DX2                !
 ! A101  A(49,48,50)           109.4712         estimate D2E/DX2                !
 ! A102  A(49,48,54)           109.4712         estimate D2E/DX2                !
 ! A103  A(50,48,54)           109.4713         estimate D2E/DX2                !
 ! A104  A(48,50,51)           109.4712         estimate D2E/DX2                !
 ! A105  A(48,50,52)           109.4712         estimate D2E/DX2                !
 ! A106  A(48,50,53)           109.4712         estimate D2E/DX2                !
 ! A107  A(51,50,52)           109.4713         estimate D2E/DX2                !
 ! A108  A(51,50,53)           109.4712         estimate D2E/DX2                !
 ! A109  A(52,50,53)           109.4712         estimate D2E/DX2                !
 ! A110  A(48,54,55)           109.4712         estimate D2E/DX2                !
 ! A111  A(48,54,56)           109.4712         estimate D2E/DX2                !
 ! A112  A(48,54,57)           109.4712         estimate D2E/DX2                !
 ! A113  A(55,54,56)           109.4713         estimate D2E/DX2                !
 ! A114  A(55,54,57)           109.4712         estimate D2E/DX2                !
 ! A115  A(56,54,57)           109.4712         estimate D2E/DX2                !
 ! D1    D(6,1,2,3)             -0.011          estimate D2E/DX2                !
 ! D2    D(6,1,2,8)           -179.9971         estimate D2E/DX2                !
 ! D3    D(41,1,2,3)           179.989          estimate D2E/DX2                !
 ! D4    D(41,1,2,8)             0.0029         estimate D2E/DX2                !
 ! D5    D(2,1,6,5)             -0.0029         estimate D2E/DX2                !
 ! D6    D(2,1,6,12)          -179.9936         estimate D2E/DX2                !
 ! D7    D(41,1,6,5)           179.9971         estimate D2E/DX2                !
 ! D8    D(41,1,6,12)            0.0064         estimate D2E/DX2                !
 ! D9    D(2,1,41,42)          118.7799         estimate D2E/DX2                !
 ! D10   D(6,1,41,42)          -61.2201         estimate D2E/DX2                !
 ! D11   D(1,2,3,4)              0.0171         estimate D2E/DX2                !
 ! D12   D(1,2,3,9)           -179.9875         estimate D2E/DX2                !
 ! D13   D(8,2,3,4)           -179.9964         estimate D2E/DX2                !
 ! D14   D(8,2,3,9)             -0.0011         estimate D2E/DX2                !
 ! D15   D(2,3,4,5)             -0.0096         estimate D2E/DX2                !
 ! D16   D(2,3,4,10)           179.9947         estimate D2E/DX2                !
 ! D17   D(9,3,4,5)            179.995          estimate D2E/DX2                !
 ! D18   D(9,3,4,10)            -0.0008         estimate D2E/DX2                !
 ! D19   D(2,3,9,7)             -0.0135         estimate D2E/DX2                !
 ! D20   D(2,3,9,14)          -179.9995         estimate D2E/DX2                !
 ! D21   D(4,3,9,7)            179.9818         estimate D2E/DX2                !
 ! D22   D(4,3,9,14)            -0.0042         estimate D2E/DX2                !
 ! D23   D(3,4,5,6)             -0.004          estimate D2E/DX2                !
 ! D24   D(3,4,5,11)          -179.9878         estimate D2E/DX2                !
 ! D25   D(10,4,5,6)           179.9916         estimate D2E/DX2                !
 ! D26   D(10,4,5,11)            0.0078         estimate D2E/DX2                !
 ! D27   D(3,4,10,13)            0.0014         estimate D2E/DX2                !
 ! D28   D(3,4,10,25)          179.9984         estimate D2E/DX2                !
 ! D29   D(5,4,10,13)         -179.9942         estimate D2E/DX2                !
 ! D30   D(5,4,10,25)            0.0027         estimate D2E/DX2                !
 ! D31   D(4,5,6,1)              0.0104         estimate D2E/DX2                !
 ! D32   D(4,5,6,12)          -179.999          estimate D2E/DX2                !
 ! D33   D(11,5,6,1)           179.9938         estimate D2E/DX2                !
 ! D34   D(11,5,6,12)           -0.0156         estimate D2E/DX2                !
 ! D35   D(3,9,14,13)            0.0084         estimate D2E/DX2                !
 ! D36   D(3,9,14,15)          179.9987         estimate D2E/DX2                !
 ! D37   D(7,9,14,13)         -179.9773         estimate D2E/DX2                !
 ! D38   D(7,9,14,15)            0.013          estimate D2E/DX2                !
 ! D39   D(4,10,13,14)           0.0027         estimate D2E/DX2                !
 ! D40   D(4,10,13,16)         179.9839         estimate D2E/DX2                !
 ! D41   D(25,10,13,14)       -179.9941         estimate D2E/DX2                !
 ! D42   D(25,10,13,16)         -0.013          estimate D2E/DX2                !
 ! D43   D(4,10,25,26)         179.9898         estimate D2E/DX2                !
 ! D44   D(4,10,25,28)         -57.6152         estimate D2E/DX2                !
 ! D45   D(4,10,25,29)          57.5949         estimate D2E/DX2                !
 ! D46   D(13,10,25,26)         -0.0133         estimate D2E/DX2                !
 ! D47   D(13,10,25,28)        122.3817         estimate D2E/DX2                !
 ! D48   D(13,10,25,29)       -122.4082         estimate D2E/DX2                !
 ! D49   D(10,13,14,9)          -0.0078         estimate D2E/DX2                !
 ! D50   D(10,13,14,15)       -179.9982         estimate D2E/DX2                !
 ! D51   D(16,13,14,9)        -179.9892         estimate D2E/DX2                !
 ! D52   D(16,13,14,15)          0.0203         estimate D2E/DX2                !
 ! D53   D(10,13,16,18)        179.9868         estimate D2E/DX2                !
 ! D54   D(10,13,16,27)         -0.0132         estimate D2E/DX2                !
 ! D55   D(10,13,16,32)         89.9868         estimate D2E/DX2                !
 ! D56   D(14,13,16,18)         -0.0319         estimate D2E/DX2                !
 ! D57   D(14,13,16,27)        179.9681         estimate D2E/DX2                !
 ! D58   D(14,13,16,32)        -90.0319         estimate D2E/DX2                !
 ! D59   D(9,14,15,17)         179.5997         estimate D2E/DX2                !
 ! D60   D(9,14,15,19)         -58.0054         estimate D2E/DX2                !
 ! D61   D(9,14,15,20)          57.2047         estimate D2E/DX2                !
 ! D62   D(13,14,15,17)         -0.4099         estimate D2E/DX2                !
 ! D63   D(13,14,15,19)        121.9851         estimate D2E/DX2                !
 ! D64   D(13,14,15,20)       -122.8048         estimate D2E/DX2                !
 ! D65   D(14,15,17,18)          0.8903         estimate D2E/DX2                !
 ! D66   D(14,15,17,21)        123.4923         estimate D2E/DX2                !
 ! D67   D(14,15,17,22)       -121.7116         estimate D2E/DX2                !
 ! D68   D(19,15,17,18)       -121.5046         estimate D2E/DX2                !
 ! D69   D(19,15,17,21)          1.0974         estimate D2E/DX2                !
 ! D70   D(19,15,17,22)        115.8934         estimate D2E/DX2                !
 ! D71   D(20,15,17,18)        123.2853         estimate D2E/DX2                !
 ! D72   D(20,15,17,21)       -114.1128         estimate D2E/DX2                !
 ! D73   D(20,15,17,22)          0.6833         estimate D2E/DX2                !
 ! D74   D(13,16,18,17)          0.5046         estimate D2E/DX2                !
 ! D75   D(13,16,18,23)        123.1087         estimate D2E/DX2                !
 ! D76   D(13,16,18,24)       -122.0994         estimate D2E/DX2                !
 ! D77   D(27,16,18,17)       -179.4954         estimate D2E/DX2                !
 ! D78   D(27,16,18,23)        -56.8913         estimate D2E/DX2                !
 ! D79   D(27,16,18,24)         57.9006         estimate D2E/DX2                !
 ! D80   D(32,16,18,17)         90.5046         estimate D2E/DX2                !
 ! D81   D(32,16,18,23)       -146.8913         estimate D2E/DX2                !
 ! D82   D(32,16,18,24)        -32.0994         estimate D2E/DX2                !
 ! D83   D(13,16,27,26)          0.0687         estimate D2E/DX2                !
 ! D84   D(13,16,27,30)        122.3266         estimate D2E/DX2                !
 ! D85   D(13,16,27,31)       -122.1892         estimate D2E/DX2                !
 ! D86   D(18,16,27,26)       -179.9313         estimate D2E/DX2                !
 ! D87   D(18,16,27,30)        -57.6734         estimate D2E/DX2                !
 ! D88   D(18,16,27,31)         57.8108         estimate D2E/DX2                !
 ! D89   D(32,16,27,26)        -89.9313         estimate D2E/DX2                !
 ! D90   D(32,16,27,30)         32.3266         estimate D2E/DX2                !
 ! D91   D(32,16,27,31)        147.8108         estimate D2E/DX2                !
 ! D92   D(15,17,18,16)         -0.9124         estimate D2E/DX2                !
 ! D93   D(15,17,18,23)       -123.5165         estimate D2E/DX2                !
 ! D94   D(15,17,18,24)        121.6916         estimate D2E/DX2                !
 ! D95   D(21,17,18,16)       -123.5144         estimate D2E/DX2                !
 ! D96   D(21,17,18,23)        113.8816         estimate D2E/DX2                !
 ! D97   D(21,17,18,24)         -0.9103         estimate D2E/DX2                !
 ! D98   D(22,17,18,16)        121.6895         estimate D2E/DX2                !
 ! D99   D(22,17,18,23)         -0.9145         estimate D2E/DX2                !
 ! D100  D(22,17,18,24)       -115.7064         estimate D2E/DX2                !
 ! D101  D(10,25,26,27)          0.0686         estimate D2E/DX2                !
 ! D102  D(10,25,26,33)       -179.9314         estimate D2E/DX2                !
 ! D103  D(10,25,26,36)        -90.0744         estimate D2E/DX2                !
 ! D104  D(28,25,26,27)       -122.3264         estimate D2E/DX2                !
 ! D105  D(28,25,26,33)         57.6736         estimate D2E/DX2                !
 ! D106  D(28,25,26,36)        147.5307         estimate D2E/DX2                !
 ! D107  D(29,25,26,27)        122.4635         estimate D2E/DX2                !
 ! D108  D(29,25,26,33)        -57.5365         estimate D2E/DX2                !
 ! D109  D(29,25,26,36)         32.3206         estimate D2E/DX2                !
 ! D110  D(25,26,27,16)         -0.0936         estimate D2E/DX2                !
 ! D111  D(25,26,27,30)       -122.3515         estimate D2E/DX2                !
 ! D112  D(25,26,27,31)        122.1643         estimate D2E/DX2                !
 ! D113  D(33,26,27,16)        179.9064         estimate D2E/DX2                !
 ! D114  D(33,26,27,30)         57.6485         estimate D2E/DX2                !
 ! D115  D(33,26,27,31)        -57.8357         estimate D2E/DX2                !
 ! D116  D(36,26,27,16)         90.0494         estimate D2E/DX2                !
 ! D117  D(36,26,27,30)        -32.2085         estimate D2E/DX2                !
 ! D118  D(36,26,27,31)       -147.6927         estimate D2E/DX2                !
 ! D119  D(25,26,33,34)         60.4776         estimate D2E/DX2                !
 ! D120  D(25,26,33,35)       -179.5224         estimate D2E/DX2                !
 ! D121  D(25,26,33,37)        -59.5224         estimate D2E/DX2                !
 ! D122  D(27,26,33,34)       -119.5224         estimate D2E/DX2                !
 ! D123  D(27,26,33,35)          0.4776         estimate D2E/DX2                !
 ! D124  D(27,26,33,37)        120.4776         estimate D2E/DX2                !
 ! D125  D(36,26,33,34)        -29.5224         estimate D2E/DX2                !
 ! D126  D(36,26,33,35)         90.4776         estimate D2E/DX2                !
 ! D127  D(36,26,33,37)       -149.5224         estimate D2E/DX2                !
 ! D128  D(26,33,37,38)         81.7051         estimate D2E/DX2                !
 ! D129  D(26,33,37,39)       -158.2949         estimate D2E/DX2                !
 ! D130  D(26,33,37,40)        -38.2949         estimate D2E/DX2                !
 ! D131  D(34,33,37,38)        -38.2949         estimate D2E/DX2                !
 ! D132  D(34,33,37,39)         81.7051         estimate D2E/DX2                !
 ! D133  D(34,33,37,40)       -158.2949         estimate D2E/DX2                !
 ! D134  D(35,33,37,38)       -158.2949         estimate D2E/DX2                !
 ! D135  D(35,33,37,39)        -38.2949         estimate D2E/DX2                !
 ! D136  D(35,33,37,40)         81.7051         estimate D2E/DX2                !
 ! D137  D(1,41,42,43)          70.9026         estimate D2E/DX2                !
 ! D138  D(1,41,42,44)         -49.0974         estimate D2E/DX2                !
 ! D139  D(1,41,42,45)        -169.0974         estimate D2E/DX2                !
 ! D140  D(41,42,45,46)        -58.6541         estimate D2E/DX2                !
 ! D141  D(41,42,45,47)         61.3459         estimate D2E/DX2                !
 ! D142  D(41,42,45,48)       -178.6541         estimate D2E/DX2                !
 ! D143  D(43,42,45,46)         61.3459         estimate D2E/DX2                !
 ! D144  D(43,42,45,47)       -178.6541         estimate D2E/DX2                !
 ! D145  D(43,42,45,48)        -58.6541         estimate D2E/DX2                !
 ! D146  D(44,42,45,46)       -178.6541         estimate D2E/DX2                !
 ! D147  D(44,42,45,47)        -58.6541         estimate D2E/DX2                !
 ! D148  D(44,42,45,48)         61.3459         estimate D2E/DX2                !
 ! D149  D(42,45,48,49)        -60.8635         estimate D2E/DX2                !
 ! D150  D(42,45,48,50)        179.1365         estimate D2E/DX2                !
 ! D151  D(42,45,48,54)         59.1365         estimate D2E/DX2                !
 ! D152  D(46,45,48,49)        179.1365         estimate D2E/DX2                !
 ! D153  D(46,45,48,50)         59.1365         estimate D2E/DX2                !
 ! D154  D(46,45,48,54)        -60.8635         estimate D2E/DX2                !
 ! D155  D(47,45,48,49)         59.1365         estimate D2E/DX2                !
 ! D156  D(47,45,48,50)        -60.8635         estimate D2E/DX2                !
 ! D157  D(47,45,48,54)        179.1365         estimate D2E/DX2                !
 ! D158  D(45,48,50,51)       -179.7985         estimate D2E/DX2                !
 ! D159  D(45,48,50,52)        -59.7985         estimate D2E/DX2                !
 ! D160  D(45,48,50,53)         60.2015         estimate D2E/DX2                !
 ! D161  D(49,48,50,51)         60.2015         estimate D2E/DX2                !
 ! D162  D(49,48,50,52)       -179.7985         estimate D2E/DX2                !
 ! D163  D(49,48,50,53)        -59.7985         estimate D2E/DX2                !
 ! D164  D(54,48,50,51)        -59.7985         estimate D2E/DX2                !
 ! D165  D(54,48,50,52)         60.2015         estimate D2E/DX2                !
 ! D166  D(54,48,50,53)       -179.7985         estimate D2E/DX2                !
 ! D167  D(45,48,54,55)        -84.0958         estimate D2E/DX2                !
 ! D168  D(45,48,54,56)         35.9042         estimate D2E/DX2                !
 ! D169  D(45,48,54,57)        155.9042         estimate D2E/DX2                !
 ! D170  D(49,48,54,55)         35.9042         estimate D2E/DX2                !
 ! D171  D(49,48,54,56)        155.9042         estimate D2E/DX2                !
 ! D172  D(49,48,54,57)        -84.0958         estimate D2E/DX2                !
 ! D173  D(50,48,54,55)        155.9042         estimate D2E/DX2                !
 ! D174  D(50,48,54,56)        -84.0958         estimate D2E/DX2                !
 ! D175  D(50,48,54,57)         35.9042         estimate D2E/DX2                !
 --------------------------------------------------------------------------------
 Trust Radius=3.00D-01 FncErr=1.00D-07 GrdErr=1.00D-06 EigMax=2.50D+02 EigMin=1.00D-04
 Number of steps in this run=    342 maximum allowed number of steps=    342.
 GradGradGradGradGradGradGradGradGradGradGradGradGradGradGradGradGradGrad

 Leave Link  103 at Wed Nov  8 22:29:35 2023, MaxMem=  5368709120 cpu:               0.3 elap:               0.0
 (Enter /home/Data/zhangqian/application/g16/l202.exe)
 Stoichiometry    C24H32S
 Framework group  C1[X(C24H32S)]
 Deg. of freedom   165
 Full point group                 C1      NOp   1
 Largest Abelian subgroup         C1      NOp   1
 Largest concise Abelian subgroup C1      NOp   1
                         Standard orientation:                         
 ---------------------------------------------------------------------
 Center     Atomic      Atomic             Coordinates (Angstroms)
 Number     Number       Type             X           Y           Z
 ---------------------------------------------------------------------
      1          6           0       -1.998569   -0.344935   -0.864884
      2          6           0       -1.160149   -1.420247   -0.705703
      3          6           0        0.221271   -1.224183   -0.431196
      4          6           0        0.722312    0.098896   -0.323471
      5          6           0       -0.168378    1.194028   -0.492711
      6          6           0       -1.498101    0.975337   -0.757428
      7          1           0        0.713823   -3.341526   -0.347166
      8          1           0       -1.540108   -2.449649   -0.787504
      9          6           0        1.112303   -2.319453   -0.262000
     10          6           0        2.103902    0.294077   -0.048818
     11          1           0        0.230106    2.215986   -0.407441
     12          1           0       -2.189951    1.820290   -0.888940
     13          6           0        2.942464   -0.781238    0.110112
     14          6           0        2.441821   -2.101634    0.002392
     15          6           0        3.410578   -3.284530    0.186428
     16          6           0        4.439049   -0.572537    0.407228
     17          6           0        4.900661   -3.022008    0.473369
     18          6           0        5.366187   -1.789537    0.583082
     19          1           0        3.033558   -3.879642    0.991784
     20          1           0        3.359448   -3.876493   -0.703440
     21          1           0        5.136128   -3.526913    1.386894
     22          1           0        5.457145   -3.497363   -0.307183
     23          1           0        6.153279   -1.688347   -0.134655
     24          1           0        5.807117   -1.707968    1.554589
     25          6           0        2.636187    1.734609    0.065813
     26          6           0        4.126695    1.983408    0.362607
     27          6           0        5.008495    0.853165    0.528489
     28          1           0        2.410396    2.229387   -0.855660
     29          1           0        2.075020    2.218563    0.837681
     30          1           0        5.455333    0.936772    1.497120
     31          1           0        5.788442    0.947889   -0.197879
     32          1           0        4.231552   -0.578938    1.456896
     33          6           0        4.669199    3.419829    0.480855
     34          1           0        4.169347    3.925156    1.280663
     35          1           0        5.720056    3.388939    0.679966
     36          1           0        3.920114    1.978323    1.412463
     37          6           0        4.418669    4.173417   -0.838592
     38          1           0        3.411958    4.535491   -0.856933
     39          1           0        5.095874    4.998570   -0.912185
     40          1           0        4.574104    3.509787   -1.663416
     41         16           0       -3.724614   -0.611816   -1.208311
     42          6           0       -4.706178    0.088624    0.101008
     43          1           0       -4.662537    1.156388    0.047391
     44          1           0       -4.324555   -0.236927    1.046143
     45          6           0       -6.167458   -0.373609   -0.049330
     46          1           0       -6.541659   -0.068367   -1.004160
     47          1           0       -6.214006   -1.439814    0.027753
     48          6           0       -7.023173    0.259374    1.063632
     49          1           0       -6.658276   -0.057889    2.018145
     50          6           0       -8.488422   -0.185609    0.900431
     51          1           0       -9.083598    0.256997    1.671642
     52          1           0       -8.852231    0.128594   -0.055509
     53          1           0       -8.547501   -1.251592    0.971766
     54          6           0       -6.938817    1.793960    0.966010
     55          1           0       -6.061894    2.136047    1.474815
     56          1           0       -6.890104    2.083757   -0.062846
     57          1           0       -7.805841    2.228313    1.418233
 ---------------------------------------------------------------------
 Rotational constants (GHZ):           0.3734955           0.0750742           0.0652840
 Leave Link  202 at Wed Nov  8 22:29:35 2023, MaxMem=  5368709120 cpu:               0.0 elap:               0.0
 (Enter /home/Data/zhangqian/application/g16/l301.exe)
 Standard basis: 6-31G(d) (6D, 7F)
 Ernie: Thresh=  0.10000D-02 Tol=  0.10000D-05 Strict=F.
 There are   443 symmetry adapted cartesian basis functions of A   symmetry.
 There are   443 symmetry adapted basis functions of A   symmetry.
   443 basis functions,   852 primitive gaussians,   443 cartesian basis functions
    96 alpha electrons       96 beta electrons
       nuclear repulsion energy      2231.0759302766 Hartrees.
 IExCor=  402 DFT=T Ex+Corr=B3LYP ExCW=0 ScaHFX=  0.200000
 ScaDFX=  0.800000  0.720000  1.000000  0.810000 ScalE2=  1.000000  1.000000
 IRadAn=      5 IRanWt=     -1 IRanGd=            0 ICorTp=0 IEmpDi=131
 NAtoms=   57 NActive=   57 NUniq=   57 SFac= 1.00D+00 NAtFMM=   60 NAOKFM=F Big=F
 Integral buffers will be    131072 words long.
 Raffenetti 2 integral format.
 Two-electron integral symmetry is turned on.
 R6Disp:  Grimme-D3 Dispersion energy=       -0.0566295841 Hartrees.
 Nuclear repulsion after empirical dispersion term =     2231.0193006925 Hartrees.
 ------------------------------------------------------------------------------
 Polarizable Continuum Model (PCM)
 =================================
 Model                : PCM.
 Atomic radii         : UFF (Universal Force Field).
 Polarization charges : Total charges.
 Charge compensation  : None.
 Solution method      : On-the-fly selection.
 Cavity type          : Scaled VdW (van der Waals Surface) (Alpha=1.100).
 Cavity algorithm     : GePol (No added spheres)
                        Default sphere list used, NSphG=   57.
                        Lebedev-Laikov grids with approx.  5.0 points / Ang**2.
                        Smoothing algorithm: York/Karplus (Gamma=1.0000).
                        Polarization charges: spherical gaussians, with
                                              point-specific exponents (IZeta= 3).
                        Self-potential: point-specific (ISelfS= 7).
                        Self-field    : sphere-specific E.n sum rule (ISelfD= 2).
 1st derivatives      : Analytical E(r).r(x)/FMM algorithm (CHGder, D1EAlg=3).
                        Cavity 1st derivative terms included.
 Solvent              : Water, Eps=  78.355300 Eps(inf)=   1.777849
 ------------------------------------------------------------------------------
 GePol: Number of generator spheres                  =      57
 GePol: Total number of spheres                      =      57
 GePol: Number of exposed spheres                    =      57 (100.00%)
 GePol: Number of points                             =    3686
 GePol: Average weight of points                     =       0.13
 GePol: Minimum weight of points                     =   0.12D-10
 GePol: Maximum weight of points                     =    0.20577
 GePol: Number of points with low weight             =     253
 GePol: Fraction of low-weight points (<1% of avg)   =       6.86%
 GePol: Cavity surface area                          =    475.711 Ang**2
 GePol: Cavity volume                                =    530.153 Ang**3
 Leave Link  301 at Wed Nov  8 22:29:35 2023, MaxMem=  5368709120 cpu:               1.4 elap:               0.1
 (Enter /home/Data/zhangqian/application/g16/l302.exe)
 NPDir=0 NMtPBC=     1 NCelOv=     1 NCel=       1 NClECP=     1 NCelD=      1
         NCelK=      1 NCelE2=     1 NClLst=     1 CellRange=     0.0.
 One-electron integrals computed using PRISM.
 One-electron integral symmetry used in STVInt
 NBasis=   443 RedAO= T EigKep=  1.99D-04  NBF=   443
 NBsUse=   443 1.00D-06 EigRej= -1.00D+00 NBFU=   443
 Precomputing XC quadrature grid using
 IXCGrd= 4 IRadAn=           5 IRanWt=          -1 IRanGd=           0 AccXCQ= 0.00D+00.
 Generated NRdTot=       0 NPtTot=           0 NUsed=           0 NTot=          32
 NSgBfM=   427   427   427   427   427 MxSgAt=    57 MxSgA2=    57.
 Leave Link  302 at Wed Nov  8 22:29:36 2023, MaxMem=  5368709120 cpu:              10.7 elap:               0.4
 (Enter /home/Data/zhangqian/application/g16/l303.exe)
 DipDrv:  MaxL=1.
 Leave Link  303 at Wed Nov  8 22:29:36 2023, MaxMem=  5368709120 cpu:               1.3 elap:               0.1
 (Enter /home/Data/zhangqian/application/g16/l401.exe)
 ExpMin= 1.17D-01 ExpMax= 2.19D+04 ExpMxC= 3.30D+03 IAcc=3 IRadAn=         5 AccDes= 0.00D+00
 Harris functional with IExCor=  402 and IRadAn=       5 diagonalized for initial guess.
 HarFok:  IExCor=  402 AccDes= 0.00D+00 IRadAn=         5 IDoV= 1 UseB2=F ITyADJ=14
 ICtDFT=  3500011 ScaDFX=  1.000000  1.000000  1.000000  1.000000
 FoFCou: FMM=F IPFlag=           0 FMFlag=      100000 FMFlg1=           0
         NFxFlg=           0 DoJE=T BraDBF=F KetDBF=T FulRan=T
         wScrn=  0.000000 ICntrl=       500 IOpCl=  0 I1Cent=   200000004 NGrid=           0
         NMat0=    1 NMatS0=      1 NMatT0=    0 NMatD0=    1 NMtDS0=    0 NMtDT0=    0
 Petite list used in FoFCou.
 Harris En= -1332.03875146532    
 JPrj=0 DoOrth=F DoCkMO=F.
 Leave Link  401 at Wed Nov  8 22:29:37 2023, MaxMem=  5368709120 cpu:              27.3 elap:               1.1
 (Enter /home/Data/zhangqian/application/g16/l502.exe)
 Integral symmetry usage will be decided dynamically.
 Closed shell SCF:
 Using DIIS extrapolation, IDIIS=  1040.
 NGot=  5368709120 LenX=  5368300785 LenY=  5368104093
 Requested convergence on RMS density matrix=1.00D-08 within 128 cycles.
 Requested convergence on MAX density matrix=1.00D-06.
 Requested convergence on             energy=1.00D-06.
 No special actions if energy rises.
 Fock matrices will be formed incrementally for  20 cycles.

 Cycle   1  Pass 1  IDiag  1:
 FoFJK:  IHMeth= 1 ICntrl=       0 DoSepK=F KAlg= 0 I1Cent=           0 FoldK=F
 IRaf= 630000000 NMat=       1 IRICut=       1 DoRegI=T DoRafI=F ISym2E= 0 IDoP0=0 IntGTp=1.
 FoFCou: FMM=F IPFlag=           0 FMFlag=      100000 FMFlg1=           0
         NFxFlg=           0 DoJE=F BraDBF=F KetDBF=F FulRan=T
         wScrn=  0.000000 ICntrl=         0 IOpCl=  0 I1Cent=           0 NGrid=           0
         NMat0=    1 NMatS0=      1 NMatT0=    0 NMatD0=    1 NMtDS0=    0 NMtDT0=    0
 Symmetry not used in FoFCou.
 Inv3:  Mode=1 IEnd=    40759788.
 Iteration    1 A*A^-1 deviation from unit magnitude is 2.89D-15 for    941.
 Iteration    1 A*A^-1 deviation from orthogonality  is 2.44D-15 for   2102   1185.
 Iteration    1 A^-1*A deviation from unit magnitude is 3.11D-15 for   3513.
 Iteration    1 A^-1*A deviation from orthogonality  is 9.74D-14 for   2403   2385.
 E= -1331.14924643689    
 DIIS: error= 4.39D-02 at cycle   1 NSaved=   1.
 NSaved= 1 IEnMin= 1 EnMin= -1331.14924643689     IErMin= 1 ErrMin= 4.39D-02
 ErrMax= 4.39D-02  0.00D+00 EMaxC= 1.00D-01 BMatC= 7.10D-01 BMatP= 7.10D-01
 IDIUse=3 WtCom= 5.61D-01 WtEn= 4.39D-01
 Coeff-Com:  0.100D+01
 Coeff-En:   0.100D+01
 Coeff:      0.100D+01
 Gap=     0.292 Goal=   None    Shift=    0.000
 GapD=    0.292 DampG=1.000 DampE=0.500 DampFc=0.5000 IDamp=-1.
 Damping current iteration by 5.00D-01
 RMSDP=4.69D-03 MaxDP=1.64D-01              OVMax= 1.76D-01

 Cycle   2  Pass 1  IDiag  1:
 RMSU=  2.29D-03    CP:  9.69D-01
 E= -1331.51405635999     Delta-E=       -0.364809923100 Rises=F Damp=T
 DIIS: error= 6.47D-03 at cycle   2 NSaved=   2.
 NSaved= 2 IEnMin= 2 EnMin= -1331.51405635999     IErMin= 2 ErrMin= 6.47D-03
 ErrMax= 6.47D-03  0.00D+00 EMaxC= 1.00D-01 BMatC= 3.20D-02 BMatP= 7.10D-01
 IDIUse=3 WtCom= 9.35D-01 WtEn= 6.47D-02
 Coeff-Com:  0.238D-01 0.976D+00
 Coeff-En:   0.380D-01 0.962D+00
 Coeff:      0.247D-01 0.975D+00
 Gap=     0.167 Goal=   None    Shift=    0.000
 RMSDP=1.26D-03 MaxDP=6.44D-02 DE=-3.65D-01 OVMax= 1.07D-01

 Cycle   3  Pass 1  IDiag  1:
 RMSU=  1.23D-03    CP:  9.53D-01  9.69D-01
 E= -1331.91542637491     Delta-E=       -0.401370014920 Rises=F Damp=F
 DIIS: error= 3.26D-03 at cycle   3 NSaved=   3.
 NSaved= 3 IEnMin= 3 EnMin= -1331.91542637491     IErMin= 3 ErrMin= 3.26D-03
 ErrMax= 3.26D-03  0.00D+00 EMaxC= 1.00D-01 BMatC= 8.80D-03 BMatP= 3.20D-02
 IDIUse=3 WtCom= 9.67D-01 WtEn= 3.26D-02
 Coeff-Com: -0.266D-01 0.307D+00 0.719D+00
 Coeff-En:   0.000D+00 0.000D+00 0.100D+01
 Coeff:     -0.258D-01 0.297D+00 0.728D+00
 Gap=     0.164 Goal=   None    Shift=    0.000
 RMSDP=4.03D-04 MaxDP=3.31D-02 DE=-4.01D-01 OVMax= 2.29D-02

 Cycle   4  Pass 1  IDiag  1:
 RMSU=  3.29D-04    CP:  9.54D-01  1.00D+00  8.21D-01
 E= -1331.92206443211     Delta-E=       -0.006638057206 Rises=F Damp=F
 DIIS: error= 1.45D-03 at cycle   4 NSaved=   4.
 NSaved= 4 IEnMin= 4 EnMin= -1331.92206443211     IErMin= 4 ErrMin= 1.45D-03
 ErrMax= 1.45D-03  0.00D+00 EMaxC= 1.00D-01 BMatC= 2.43D-03 BMatP= 8.80D-03
 IDIUse=3 WtCom= 9.85D-01 WtEn= 1.45D-02
 Coeff-Com: -0.133D-01 0.654D-01 0.371D+00 0.576D+00
 Coeff-En:   0.000D+00 0.000D+00 0.193D+00 0.807D+00
 Coeff:     -0.131D-01 0.645D-01 0.369D+00 0.580D+00
 Gap=     0.163 Goal=   None    Shift=    0.000
 RMSDP=1.65D-04 MaxDP=8.79D-03 DE=-6.64D-03 OVMax= 1.40D-02

 Cycle   5  Pass 1  IDiag  1:
 RMSU=  9.00D-05    CP:  9.54D-01  1.00D+00  8.50D-01  5.94D-01
 E= -1331.92440077212     Delta-E=       -0.002336340002 Rises=F Damp=F
 DIIS: error= 3.77D-04 at cycle   5 NSaved=   5.
 NSaved= 5 IEnMin= 5 EnMin= -1331.92440077212     IErMin= 5 ErrMin= 3.77D-04
 ErrMax= 3.77D-04  0.00D+00 EMaxC= 1.00D-01 BMatC= 2.02D-04 BMatP= 2.43D-03
 IDIUse=3 WtCom= 9.96D-01 WtEn= 3.77D-03
 Coeff-Com: -0.491D-02 0.141D-01 0.145D+00 0.306D+00 0.539D+00
 Coeff-En:   0.000D+00 0.000D+00 0.000D+00 0.000D+00 0.100D+01
 Coeff:     -0.489D-02 0.140D-01 0.145D+00 0.305D+00 0.541D+00
 Gap=     0.163 Goal=   None    Shift=    0.000
 RMSDP=4.59D-05 MaxDP=2.56D-03 DE=-2.34D-03 OVMax= 6.77D-03

 Cycle   6  Pass 1  IDiag  1:
 RMSU=  2.76D-05    CP:  9.54D-01  1.00D+00  8.58D-01  6.27D-01  6.25D-01
 E= -1331.92458548680     Delta-E=       -0.000184714688 Rises=F Damp=F
 DIIS: error= 1.96D-04 at cycle   6 NSaved=   6.
 NSaved= 6 IEnMin= 6 EnMin= -1331.92458548680     IErMin= 6 ErrMin= 1.96D-04
 ErrMax= 1.96D-04  0.00D+00 EMaxC= 1.00D-01 BMatC= 2.10D-05 BMatP= 2.02D-04
 IDIUse=3 WtCom= 9.98D-01 WtEn= 1.96D-03
 Coeff-Com: -0.172D-02 0.267D-02 0.533D-01 0.130D+00 0.313D+00 0.502D+00
 Coeff-En:   0.000D+00 0.000D+00 0.000D+00 0.000D+00 0.333D-01 0.967D+00
 Coeff:     -0.171D-02 0.266D-02 0.532D-01 0.130D+00 0.313D+00 0.503D+00
 Gap=     0.163 Goal=   None    Shift=    0.000
 RMSDP=1.39D-05 MaxDP=1.04D-03 DE=-1.85D-04 OVMax= 2.10D-03

 Cycle   7  Pass 1  IDiag  1:
 RMSU=  7.18D-06    CP:  9.54D-01  1.00D+00  8.59D-01  6.30D-01  6.73D-01
                    CP:  6.00D-01
 E= -1331.92460735171     Delta-E=       -0.000021864902 Rises=F Damp=F
 DIIS: error= 4.10D-05 at cycle   7 NSaved=   7.
 NSaved= 7 IEnMin= 7 EnMin= -1331.92460735171     IErMin= 7 ErrMin= 4.10D-05
 ErrMax= 4.10D-05  0.00D+00 EMaxC= 1.00D-01 BMatC= 9.52D-07 BMatP= 2.10D-05
 IDIUse=1 WtCom= 1.00D+00 WtEn= 0.00D+00
 Coeff-Com: -0.521D-03 0.305D-03 0.167D-01 0.443D-01 0.120D+00 0.250D+00
 Coeff-Com:  0.570D+00
 Coeff:     -0.521D-03 0.305D-03 0.167D-01 0.443D-01 0.120D+00 0.250D+00
 Coeff:      0.570D+00
 Gap=     0.163 Goal=   None    Shift=    0.000
 RMSDP=3.37D-06 MaxDP=2.48D-04 DE=-2.19D-05 OVMax= 4.69D-04

 Cycle   8  Pass 1  IDiag  1:
 RMSU=  2.13D-06    CP:  9.54D-01  1.00D+00  8.59D-01  6.32D-01  6.67D-01
                    CP:  6.34D-01  6.99D-01
 E= -1331.92460836055     Delta-E=       -0.000001008844 Rises=F Damp=F
 DIIS: error= 1.05D-05 at cycle   8 NSaved=   8.
 NSaved= 8 IEnMin= 8 EnMin= -1331.92460836055     IErMin= 8 ErrMin= 1.05D-05
 ErrMax= 1.05D-05  0.00D+00 EMaxC= 1.00D-01 BMatC= 6.69D-08 BMatP= 9.52D-07
 IDIUse=1 WtCom= 1.00D+00 WtEn= 0.00D+00
 Coeff-Com: -0.255D-04-0.178D-03 0.113D-02 0.409D-02 0.163D-01 0.464D-01
 Coeff-Com:  0.243D+00 0.689D+00
 Coeff:     -0.255D-04-0.178D-03 0.113D-02 0.409D-02 0.163D-01 0.464D-01
 Coeff:      0.243D+00 0.689D+00
 Gap=     0.163 Goal=   None    Shift=    0.000
 RMSDP=9.15D-07 MaxDP=4.49D-05 DE=-1.01D-06 OVMax= 1.22D-04

 Cycle   9  Pass 1  IDiag  1:
 RMSU=  6.68D-07    CP:  9.54D-01  1.00D+00  8.59D-01  6.32D-01  6.70D-01
                    CP:  6.33D-01  7.55D-01  8.18D-01
 E= -1331.92460842601     Delta-E=       -0.000000065463 Rises=F Damp=F
 DIIS: error= 2.71D-06 at cycle   9 NSaved=   9.
 NSaved= 9 IEnMin= 9 EnMin= -1331.92460842601     IErMin= 9 ErrMin= 2.71D-06
 ErrMax= 2.71D-06  0.00D+00 EMaxC= 1.00D-01 BMatC= 1.00D-08 BMatP= 6.69D-08
 IDIUse=1 WtCom= 1.00D+00 WtEn= 0.00D+00
 Coeff-Com:  0.318D-04-0.123D-03-0.843D-03-0.168D-02-0.137D-02 0.226D-02
 Coeff-Com:  0.794D-01 0.363D+00 0.559D+00
 Coeff:      0.318D-04-0.123D-03-0.843D-03-0.168D-02-0.137D-02 0.226D-02
 Coeff:      0.794D-01 0.363D+00 0.559D+00
 Gap=     0.163 Goal=   None    Shift=    0.000
 RMSDP=3.61D-07 MaxDP=2.63D-05 DE=-6.55D-08 OVMax= 3.59D-05

 Cycle  10  Pass 1  IDiag  1:
 RMSU=  2.35D-07    CP:  9.54D-01  1.00D+00  8.59D-01  6.32D-01  6.71D-01
                    CP:  6.37D-01  7.67D-01  8.62D-01  6.96D-01
 E= -1331.92460843625     Delta-E=       -0.000000010239 Rises=F Damp=F
 DIIS: error= 1.03D-06 at cycle  10 NSaved=  10.
 NSaved=10 IEnMin=10 EnMin= -1331.92460843625     IErMin=10 ErrMin= 1.03D-06
 ErrMax= 1.03D-06  0.00D+00 EMaxC= 1.00D-01 BMatC= 8.35D-10 BMatP= 1.00D-08
 IDIUse=1 WtCom= 1.00D+00 WtEn= 0.00D+00
 Coeff-Com:  0.165D-04-0.394D-04-0.492D-03-0.118D-02-0.202D-02-0.352D-02
 Coeff-Com:  0.154D-01 0.111D+00 0.273D+00 0.607D+00
 Coeff:      0.165D-04-0.394D-04-0.492D-03-0.118D-02-0.202D-02-0.352D-02
 Coeff:      0.154D-01 0.111D+00 0.273D+00 0.607D+00
 Gap=     0.163 Goal=   None    Shift=    0.000
 RMSDP=1.12D-07 MaxDP=5.49D-06 DE=-1.02D-08 OVMax= 1.54D-05

 Cycle  11  Pass 1  IDiag  1:
 RMSU=  7.63D-08    CP:  9.54D-01  1.00D+00  8.59D-01  6.32D-01  6.71D-01
                    CP:  6.36D-01  7.69D-01  8.71D-01  7.55D-01  7.18D-01
 E= -1331.92460843709     Delta-E=       -0.000000000838 Rises=F Damp=F
 DIIS: error= 4.94D-07 at cycle  11 NSaved=  11.
 NSaved=11 IEnMin=11 EnMin= -1331.92460843709     IErMin=11 ErrMin= 4.94D-07
 ErrMax= 4.94D-07  0.00D+00 EMaxC= 1.00D-01 BMatC= 1.73D-10 BMatP= 8.35D-10
 IDIUse=1 WtCom= 1.00D+00 WtEn= 0.00D+00
 Coeff-Com:  0.594D-05-0.850D-05-0.195D-03-0.513D-03-0.993D-03-0.242D-02
 Coeff-Com: -0.135D-04 0.243D-01 0.959D-01 0.359D+00 0.525D+00
 Coeff:      0.594D-05-0.850D-05-0.195D-03-0.513D-03-0.993D-03-0.242D-02
 Coeff:     -0.135D-04 0.243D-01 0.959D-01 0.359D+00 0.525D+00
 Gap=     0.163 Goal=   None    Shift=    0.000
 RMSDP=4.10D-08 MaxDP=2.65D-06 DE=-8.38D-10 OVMax= 4.59D-06

 Cycle  12  Pass 1  IDiag  1:
 RMSU=  2.27D-08    CP:  9.54D-01  1.00D+00  8.59D-01  6.32D-01  6.71D-01
                    CP:  6.36D-01  7.69D-01  8.75D-01  7.60D-01  7.96D-01
                    CP:  6.66D-01
 E= -1331.92460843725     Delta-E=       -0.000000000165 Rises=F Damp=F
 DIIS: error= 7.90D-08 at cycle  12 NSaved=  12.
 NSaved=12 IEnMin=12 EnMin= -1331.92460843725     IErMin=12 ErrMin= 7.90D-08
 ErrMax= 7.90D-08  0.00D+00 EMaxC= 1.00D-01 BMatC= 7.36D-12 BMatP= 1.73D-10
 IDIUse=1 WtCom= 1.00D+00 WtEn= 0.00D+00
 Coeff-Com:  0.208D-06 0.143D-05-0.127D-04-0.507D-04-0.964D-04-0.523D-03
 Coeff-Com: -0.164D-02-0.324D-02 0.393D-02 0.667D-01 0.204D+00 0.731D+00
 Coeff:      0.208D-06 0.143D-05-0.127D-04-0.507D-04-0.964D-04-0.523D-03
 Coeff:     -0.164D-02-0.324D-02 0.393D-02 0.667D-01 0.204D+00 0.731D+00
 Gap=     0.163 Goal=   None    Shift=    0.000
 RMSDP=1.13D-08 MaxDP=4.83D-07 DE=-1.65D-10 OVMax= 1.47D-06

 Cycle  13  Pass 1  IDiag  1:
 RMSU=  7.98D-09    CP:  9.54D-01  1.00D+00  8.59D-01  6.32D-01  6.71D-01
                    CP:  6.36D-01  7.69D-01  8.76D-01  7.65D-01  7.99D-01
                    CP:  7.37D-01  8.70D-01
 E= -1331.92460843726     Delta-E=       -0.000000000002 Rises=F Damp=F
 DIIS: error= 4.37D-08 at cycle  13 NSaved=  13.
 NSaved=13 IEnMin=13 EnMin= -1331.92460843726     IErMin=13 ErrMin= 4.37D-08
 ErrMax= 4.37D-08  0.00D+00 EMaxC= 1.00D-01 BMatC= 1.82D-12 BMatP= 7.36D-12
 IDIUse=1 WtCom= 1.00D+00 WtEn= 0.00D+00
 Coeff-Com: -0.375D-06 0.164D-05 0.965D-05 0.146D-04 0.299D-04-0.112D-03
 Coeff-Com: -0.102D-02-0.444D-02-0.774D-02 0.269D-02 0.658D-01 0.419D+00
 Coeff-Com:  0.525D+00
 Coeff:     -0.375D-06 0.164D-05 0.965D-05 0.146D-04 0.299D-04-0.112D-03
 Coeff:     -0.102D-02-0.444D-02-0.774D-02 0.269D-02 0.658D-01 0.419D+00
 Coeff:      0.525D+00
 Gap=     0.163 Goal=   None    Shift=    0.000
 RMSDP=4.42D-09 MaxDP=2.80D-07 DE=-2.27D-12 OVMax= 5.24D-07

 Error on total polarization charges =  0.01570
 SCF Done:  E(RB3LYP) =  -1331.92460844     A.U. after   13 cycles
            NFock= 13  Conv=0.44D-08     -V/T= 2.0064
 KE= 1.323438069682D+03 PE=-7.569732382448D+03 EE= 2.683350403636D+03
 Leave Link  502 at Wed Nov  8 22:30:16 2023, MaxMem=  5368709120 cpu:             893.6 elap:              38.5
 (Enter /home/Data/zhangqian/application/g16/l601.exe)
 Copying SCF densities to generalized density rwf, IOpCl= 0 IROHF=0.

 **********************************************************************

            Population analysis using the SCF density.

 **********************************************************************

 Orbital symmetries:
       Occupied  (A) (A) (A) (A) (A) (A) (A) (A) (A) (A) (A) (A)
                 (A) (A) (A) (A) (A) (A) (A) (A) (A) (A) (A) (A)
                 (A) (A) (A) (A) (A) (A) (A) (A) (A) (A) (A) (A)
                 (A) (A) (A) (A) (A) (A) (A) (A) (A) (A) (A) (A)
                 (A) (A) (A) (A) (A) (A) (A) (A) (A) (A) (A) (A)
                 (A) (A) (A) (A) (A) (A) (A) (A) (A) (A) (A) (A)
                 (A) (A) (A) (A) (A) (A) (A) (A) (A) (A) (A) (A)
                 (A) (A) (A) (A) (A) (A) (A) (A) (A) (A) (A) (A)
       Virtual   (A) (A) (A) (A) (A) (A) (A) (A) (A) (A) (A) (A)
                 (A) (A) (A) (A) (A) (A) (A) (A) (A) (A) (A) (A)
                 (A) (A) (A) (A) (A) (A) (A) (A) (A) (A) (A) (A)
                 (A) (A) (A) (A) (A) (A) (A) (A) (A) (A) (A) (A)
                 (A) (A) (A) (A) (A) (A) (A) (A) (A) (A) (A) (A)
                 (A) (A) (A) (A) (A) (A) (A) (A) (A) (A) (A) (A)
                 (A) (A) (A) (A) (A) (A) (A) (A) (A) (A) (A) (A)
                 (A) (A) (A) (A) (A) (A) (A) (A) (A) (A) (A) (A)
                 (A) (A) (A) (A) (A) (A) (A) (A) (A) (A) (A) (A)
                 (A) (A) (A) (A) (A) (A) (A) (A) (A) (A) (A) (A)
                 (A) (A) (A) (A) (A) (A) (A) (A) (A) (A) (A) (A)
                 (A) (A) (A) (A) (A) (A) (A) (A) (A) (A) (A) (A)
                 (A) (A) (A) (A) (A) (A) (A) (A) (A) (A) (A) (A)
                 (A) (A) (A) (A) (A) (A) (A) (A) (A) (A) (A) (A)
                 (A) (A) (A) (A) (A) (A) (A) (A) (A) (A) (A) (A)
                 (A) (A) (A) (A) (A) (A) (A) (A) (A) (A) (A) (A)
                 (A) (A) (A) (A) (A) (A) (A) (A) (A) (A) (A) (A)
                 (A) (A) (A) (A) (A) (A) (A) (A) (A) (A) (A) (A)
                 (A) (A) (A) (A) (A) (A) (A) (A) (A) (A) (A) (A)
                 (A) (A) (A) (A) (A) (A) (A) (A) (A) (A) (A) (A)
                 (A) (A) (A) (A) (A) (A) (A) (A) (A) (A) (A) (A)
                 (A) (A) (A) (A) (A) (A) (A) (A) (A) (A) (A) (A)
                 (A) (A) (A) (A) (A) (A) (A) (A) (A) (A) (A) (A)
                 (A) (A) (A) (A) (A) (A) (A) (A) (A) (A) (A) (A)
                 (A) (A) (A) (A) (A) (A) (A) (A) (A) (A) (A) (A)
                 (A) (A) (A) (A) (A) (A) (A) (A) (A) (A) (A) (A)
                 (A) (A) (A) (A) (A) (A) (A) (A) (A) (A) (A) (A)
                 (A) (A) (A) (A) (A) (A) (A) (A) (A) (A) (A) (A)
                 (A) (A) (A) (A) (A) (A) (A) (A) (A) (A) (A)
 The electronic state is 1-A.
 Alpha  occ. eigenvalues --  -88.86884 -10.21498 -10.20214 -10.19529 -10.19446
 Alpha  occ. eigenvalues --  -10.19396 -10.19290 -10.19219 -10.19204 -10.19003
 Alpha  occ. eigenvalues --  -10.18791 -10.18329 -10.18183 -10.18134 -10.17945
 Alpha  occ. eigenvalues --  -10.17933 -10.17681 -10.17592 -10.17313 -10.16423
 Alpha  occ. eigenvalues --  -10.16219 -10.16096 -10.16055 -10.15848 -10.15760
 Alpha  occ. eigenvalues --   -7.93086  -5.89610  -5.89191  -5.88578  -0.88291
 Alpha  occ. eigenvalues --   -0.85874  -0.83126  -0.83012  -0.81607  -0.78487
 Alpha  occ. eigenvalues --   -0.77739  -0.76304  -0.74715  -0.73052  -0.72535
 Alpha  occ. eigenvalues --   -0.68530  -0.68415  -0.67745  -0.65263  -0.63046
 Alpha  occ. eigenvalues --   -0.61884  -0.59877  -0.58641  -0.58301  -0.56374
 Alpha  occ. eigenvalues --   -0.53868  -0.53072  -0.50991  -0.50059  -0.48859
 Alpha  occ. eigenvalues --   -0.48032  -0.47986  -0.46249  -0.45244  -0.45095
 Alpha  occ. eigenvalues --   -0.44278  -0.44105  -0.43505  -0.42925  -0.42360
 Alpha  occ. eigenvalues --   -0.41964  -0.40933  -0.40713  -0.40389  -0.39918
 Alpha  occ. eigenvalues --   -0.39140  -0.38976  -0.38807  -0.38406  -0.37526
 Alpha  occ. eigenvalues --   -0.36955  -0.36503  -0.36353  -0.35327  -0.35025
 Alpha  occ. eigenvalues --   -0.34749  -0.33565  -0.32948  -0.32275  -0.32041
 Alpha  occ. eigenvalues --   -0.31698  -0.31053  -0.30116  -0.29571  -0.29325
 Alpha  occ. eigenvalues --   -0.28976  -0.26886  -0.24828  -0.23242  -0.21869
 Alpha  occ. eigenvalues --   -0.19999
 Alpha virt. eigenvalues --   -0.03732  -0.00897   0.03393   0.05343   0.06119
 Alpha virt. eigenvalues --    0.07120   0.07981   0.09348   0.10093   0.10973
 Alpha virt. eigenvalues --    0.11575   0.12369   0.12797   0.12959   0.13523
 Alpha virt. eigenvalues --    0.14116   0.14873   0.14961   0.15258   0.15577
 Alpha virt. eigenvalues --    0.15866   0.16223   0.16336   0.16857   0.17133
 Alpha virt. eigenvalues --    0.17609   0.17665   0.18897   0.19071   0.19169
 Alpha virt. eigenvalues --    0.19690   0.20051   0.20347   0.20644   0.21171
 Alpha virt. eigenvalues --    0.21692   0.22062   0.22306   0.22830   0.23082
 Alpha virt. eigenvalues --    0.23563   0.24313   0.24786   0.25101   0.25670
 Alpha virt. eigenvalues --    0.25831   0.26257   0.27078   0.28144   0.28986
 Alpha virt. eigenvalues --    0.29451   0.29687   0.29915   0.30903   0.33078
 Alpha virt. eigenvalues --    0.34488   0.36013   0.37814   0.38822   0.39560
 Alpha virt. eigenvalues --    0.41660   0.42445   0.43381   0.43773   0.44475
 Alpha virt. eigenvalues --    0.47039   0.48736   0.49751   0.50196   0.51130
 Alpha virt. eigenvalues --    0.51678   0.52126   0.52413   0.52773   0.53640
 Alpha virt. eigenvalues --    0.54443   0.54867   0.55513   0.55894   0.56234
 Alpha virt. eigenvalues --    0.56816   0.57342   0.57453   0.58512   0.58636
 Alpha virt. eigenvalues --    0.59134   0.59339   0.59699   0.60305   0.61333
 Alpha virt. eigenvalues --    0.61674   0.62573   0.62704   0.63505   0.63755
 Alpha virt. eigenvalues --    0.64809   0.65334   0.65516   0.66548   0.67347
 Alpha virt. eigenvalues --    0.68611   0.69507   0.70364   0.70895   0.71827
 Alpha virt. eigenvalues --    0.72208   0.72653   0.72879   0.73264   0.73952
 Alpha virt. eigenvalues --    0.74817   0.77014   0.78125   0.78517   0.79501
 Alpha virt. eigenvalues --    0.80243   0.80427   0.81005   0.81769   0.82138
 Alpha virt. eigenvalues --    0.83260   0.83742   0.84476   0.84809   0.85481
 Alpha virt. eigenvalues --    0.85672   0.86555   0.87206   0.87570   0.88256
 Alpha virt. eigenvalues --    0.89219   0.89571   0.89813   0.90319   0.90551
 Alpha virt. eigenvalues --    0.90635   0.91409   0.91781   0.92010   0.92140
 Alpha virt. eigenvalues --    0.92296   0.93191   0.93478   0.94005   0.94236
 Alpha virt. eigenvalues --    0.95205   0.95360   0.95907   0.96299   0.97145
 Alpha virt. eigenvalues --    0.97294   0.97590   0.97901   0.98761   0.99259
 Alpha virt. eigenvalues --    0.99846   1.00067   1.00689   1.01124   1.01841
 Alpha virt. eigenvalues --    1.02519   1.02634   1.03764   1.04234   1.05115
 Alpha virt. eigenvalues --    1.05352   1.07277   1.08747   1.09835   1.10326
 Alpha virt. eigenvalues --    1.12061   1.13698   1.15472   1.15907   1.17838
 Alpha virt. eigenvalues --    1.19414   1.20660   1.24042   1.24720   1.25140
 Alpha virt. eigenvalues --    1.25989   1.27137   1.27756   1.30166   1.31433
 Alpha virt. eigenvalues --    1.33460   1.34009   1.36991   1.37756   1.38368
 Alpha virt. eigenvalues --    1.40797   1.41261   1.42332   1.44607   1.45205
 Alpha virt. eigenvalues --    1.45518   1.47180   1.47437   1.49044   1.49463
 Alpha virt. eigenvalues --    1.54431   1.54920   1.55325   1.57110   1.59067
 Alpha virt. eigenvalues --    1.60117   1.60656   1.63077   1.63895   1.65105
 Alpha virt. eigenvalues --    1.67039   1.70547   1.72552   1.74121   1.75185
 Alpha virt. eigenvalues --    1.75816   1.76921   1.77544   1.78495   1.79466
 Alpha virt. eigenvalues --    1.80170   1.80988   1.83142   1.84657   1.84973
 Alpha virt. eigenvalues --    1.85813   1.87638   1.88224   1.89550   1.90353
 Alpha virt. eigenvalues --    1.91046   1.91178   1.91451   1.92383   1.93641
 Alpha virt. eigenvalues --    1.96862   1.97374   1.97673   1.98803   1.98984
 Alpha virt. eigenvalues --    2.00170   2.00778   2.02946   2.04209   2.05214
 Alpha virt. eigenvalues --    2.06125   2.08717   2.09159   2.09632   2.10004
 Alpha virt. eigenvalues --    2.11389   2.13282   2.13773   2.14626   2.15149
 Alpha virt. eigenvalues --    2.16392   2.17418   2.19865   2.20175   2.20531
 Alpha virt. eigenvalues --    2.21620   2.22006   2.23354   2.26558   2.27957
 Alpha virt. eigenvalues --    2.28038   2.28578   2.28790   2.29424   2.29952
 Alpha virt. eigenvalues --    2.31311   2.31561   2.31938   2.33133   2.33839
 Alpha virt. eigenvalues --    2.34408   2.35440   2.35736   2.36139   2.37428
 Alpha virt. eigenvalues --    2.37930   2.39087   2.40775   2.42346   2.43128
 Alpha virt. eigenvalues --    2.44600   2.45945   2.47945   2.51484   2.51609
 Alpha virt. eigenvalues --    2.52736   2.53040   2.58027   2.58434   2.61509
 Alpha virt. eigenvalues --    2.63571   2.64642   2.65507   2.65785   2.67388
 Alpha virt. eigenvalues --    2.69605   2.70150   2.70903   2.71425   2.73609
 Alpha virt. eigenvalues --    2.76272   2.77219   2.78728   2.79316   2.83093
 Alpha virt. eigenvalues --    2.83742   2.86088   2.87094   2.89400   2.94524
 Alpha virt. eigenvalues --    2.96840   2.99991   3.08672   3.12284   3.21773
 Alpha virt. eigenvalues --    3.39419   3.49424   3.96605   4.09243   4.11294
 Alpha virt. eigenvalues --    4.11784   4.14265   4.15470   4.16363   4.19262
 Alpha virt. eigenvalues --    4.22616   4.24982   4.26360   4.29910   4.30038
 Alpha virt. eigenvalues --    4.34283   4.36733   4.38941   4.42068   4.43917
 Alpha virt. eigenvalues --    4.45330   4.52233   4.52497   4.59986   4.66062
 Alpha virt. eigenvalues --    4.71481   4.89954
          Condensed to atoms (all electrons):
 Mulliken charges:
               1
     1  C   -0.085291
     2  C   -0.243523
     3  C    0.147553
     4  C    0.067901
     5  C   -0.201835
     6  C   -0.176381
     7  H    0.136392
     8  H    0.151874
     9  C   -0.297440
    10  C    0.016743
    11  H    0.152969
    12  H    0.150155
    13  C    0.032635
    14  C    0.103147
    15  C   -0.361233
    16  C   -0.151723
    17  C   -0.268582
    18  C   -0.293856
    19  H    0.164074
    20  H    0.164493
    21  H    0.151372
    22  H    0.154395
    23  H    0.140575
    24  H    0.152196
    25  C   -0.392047
    26  C   -0.056012
    27  C   -0.351621
    28  H    0.154074
    29  H    0.163018
    30  H    0.153862
    31  H    0.121027
    32  H    0.197754
    33  C   -0.282350
    34  H    0.148776
    35  H    0.149996
    36  H    0.164415
    37  C   -0.455237
    38  H    0.153314
    39  H    0.142050
    40  H    0.151092
    41  S    0.011008
    42  C   -0.422041
    43  H    0.191288
    44  H    0.183044
    45  C   -0.273027
    46  H    0.154086
    47  H    0.152386
    48  C   -0.077389
    49  H    0.136691
    50  C   -0.453988
    51  H    0.148341
    52  H    0.147864
    53  H    0.145782
    54  C   -0.466559
    55  H    0.154100
    56  H    0.152173
    57  H    0.147522
 Sum of Mulliken charges =  -0.00000
 Mulliken charges with hydrogens summed into heavy atoms:
               1
     1  C   -0.085291
     2  C   -0.091648
     3  C    0.147553
     4  C    0.067901
     5  C   -0.048866
     6  C   -0.026226
     9  C   -0.161048
    10  C    0.016743
    13  C    0.032635
    14  C    0.103147
    15  C   -0.032666
    16  C    0.046030
    17  C    0.037185
    18  C   -0.001086
    25  C   -0.074955
    26  C    0.108402
    27  C   -0.076732
    33  C    0.016422
    37  C   -0.008780
    41  S    0.011008
    42  C   -0.047709
    45  C    0.033445
    48  C    0.059302
    50  C   -0.012001
    54  C   -0.012764
 Electronic spatial extent (au):  <R**2>=          16518.7477
 Charge=             -0.0000 electrons
 Dipole moment (field-independent basis, Debye):
    X=              2.8787    Y=              0.9058    Z=              3.8533  Tot=              4.8944
 Quadrupole moment (field-independent basis, Debye-Ang):
   XX=           -139.3614   YY=           -149.8236   ZZ=           -162.5689
   XY=             -7.5943   XZ=             -2.3260   YZ=             -0.3927
 Traceless Quadrupole moment (field-independent basis, Debye-Ang):
   XX=             11.2232   YY=              0.7610   ZZ=            -11.9843
   XY=             -7.5943   XZ=             -2.3260   YZ=             -0.3927
 Octapole moment (field-independent basis, Debye-Ang**2):
  XXX=             -3.8034  YYY=            -12.8057  ZZZ=             21.4169  XYY=             26.0846
  XXY=              6.8625  XXZ=             67.6304  XZZ=             17.3719  YZZ=              0.3529
  YYZ=              8.6868  XYZ=              9.4101
 Hexadecapole moment (field-independent basis, Debye-Ang**3):
 XXXX=         -17846.4914 YYYY=          -3491.7492 ZZZZ=           -684.0214 XXXY=           -201.3735
 XXXZ=            -60.0087 YYYX=            -32.6582 YYYZ=             20.1492 ZZZX=            -16.6151
 ZZZY=             -2.1132 XXYY=          -3579.5357 XXZZ=          -3161.7457 YYZZ=           -704.2478
 XXYZ=            -12.2007 YYXZ=             30.0382 ZZXY=            -27.7207
 N-N= 2.231019300693D+03 E-N=-7.569732380846D+03  KE= 1.323438069682D+03
 No NMR shielding tensors so no spin-rotation constants.
 Leave Link  601 at Wed Nov  8 22:30:16 2023, MaxMem=  5368709120 cpu:               3.9 elap:               0.2
 (Enter /home/Data/zhangqian/application/g16/l701.exe)
 ... and contract with generalized density number  0.
 Compute integral first derivatives.
 R6Disp: Adding Grimme-D3 dispersion energy 1st derivatives to the gradient.
 D1PCM: PCM CHGder 1st derivatives, ID1Alg=3 FixD1E=F DoIter=F DoCFld=F I1PDM=0.
 GePol: Maximum number of non-zero 1st derivatives   =     235
[...]
     20          1           0        3.029271   -4.061436    0.876733
     21          1           0        5.562874   -3.519150    0.650296
     22          1           0        4.635493   -3.567515   -0.840401
     23          1           0        5.027100   -1.354346   -1.312767
     24          1           0        6.277850   -1.417326   -0.080501
     25          6           0        2.554100    1.797288   -0.001600
     26          6           0        3.916456    1.995556    0.680990
     27          6           0        4.892994    0.935921    0.162100
     28          1           0        2.606536    2.135900   -1.046498
     29          1           0        1.816677    2.447027    0.486372
     30          1           0        5.905753    1.112533    0.547140
     31          1           0        4.954856    1.004499   -0.933282
     32          1           0        4.653969   -0.622446    1.620516
     33          6           0        4.443551    3.437613    0.548039
     34          1           0        3.685030    4.124769    0.948804
     35          1           0        5.323478    3.539526    1.198154
     36          1           0        3.769849    1.808563    1.756288
     37          6           0        4.825408    3.881394   -0.870719
     38          1           0        3.975647    3.826140   -1.560524
     39          1           0        5.176444    4.919579   -0.865351
     40          1           0        5.630162    3.262935   -1.283633
     41         16           0       -3.707553   -1.025898   -1.221579
     42          6           0       -4.624037   -0.055821    0.060821
     43          1           0       -4.299880    0.985637   -0.007623
     44          1           0       -4.341501   -0.439275    1.046943
     45          6           0       -6.132004   -0.185757   -0.163906
     46          1           0       -6.395100    0.238041   -1.143352
     47          1           0       -6.399539   -1.250505   -0.198971
     48          6           0       -6.979193    0.499915    0.927805
     49          1           0       -6.687076    0.069387    1.897611
     50          6           0       -8.467542    0.196069    0.702120
     51          1           0       -9.084383    0.641802    1.491268
     52          1           0       -8.805474    0.606463   -0.258520
     53          1           0       -8.658470   -0.883665    0.691683
     54          6           0       -6.742496    2.016499    0.986023
     55          1           0       -5.706072    2.264759    1.238881
     56          1           0       -6.973844    2.480370    0.017978
     57          1           0       -7.386813    2.480613    1.741880
 ---------------------------------------------------------------------
 Rotational constants (GHZ):           0.3803963           0.0763819           0.0666051
 Leave Link  202 at Wed Nov  8 22:44:12 2023, MaxMem=  5368709120 cpu:               0.0 elap:               0.0
 (Enter /home/Data/zhangqian/application/g16/l601.exe)
 Copying SCF densities to generalized density rwf, IOpCl= 0 IROHF=0.

 **********************************************************************

            Population analysis using the SCF density.

 **********************************************************************

 Orbital symmetries:
       Occupied  (A) (A) (A) (A) (A) (A) (A) (A) (A) (A) (A) (A)
                 (A) (A) (A) (A) (A) (A) (A) (A) (A) (A) (A) (A)
                 (A) (A) (A) (A) (A) (A) (A) (A) (A) (A) (A) (A)
                 (A) (A) (A) (A) (A) (A) (A) (A) (A) (A) (A) (A)
                 (A) (A) (A) (A) (A) (A) (A) (A) (A) (A) (A) (A)
                 (A) (A) (A) (A) (A) (A) (A) (A) (A) (A) (A) (A)
                 (A) (A) (A) (A) (A) (A) (A) (A) (A) (A) (A) (A)
                 (A) (A) (A) (A) (A) (A) (A) (A) (A) (A) (A) (A)
       Virtual   (A) (A) (A) (A) (A) (A) (A) (A) (A) (A) (A) (A)
                 (A) (A) (A) (A) (A) (A) (A) (A) (A) (A) (A) (A)
                 (A) (A) (A) (A) (A) (A) (A) (A) (A) (A) (A) (A)
                 (A) (A) (A) (A) (A) (A) (A) (A) (A) (A) (A) (A)
                 (A) (A) (A) (A) (A) (A) (A) (A) (A) (A) (A) (A)
                 (A) (A) (A) (A) (A) (A) (A) (A) (A) (A) (A) (A)
                 (A) (A) (A) (A) (A) (A) (A) (A) (A) (A) (A) (A)
                 (A) (A) (A) (A) (A) (A) (A) (A) (A) (A) (A) (A)
                 (A) (A) (A) (A) (A) (A) (A) (A) (A) (A) (A) (A)
                 (A) (A) (A) (A) (A) (A) (A) (A) (A) (A) (A) (A)
                 (A) (A) (A) (A) (A) (A) (A) (A) (A) (A) (A) (A)
                 (A) (A) (A) (A) (A) (A) (A) (A) (A) (A) (A) (A)
                 (A) (A) (A) (A) (A) (A) (A) (A) (A) (A) (A) (A)
                 (A) (A) (A) (A) (A) (A) (A) (A) (A) (A) (A) (A)
                 (A) (A) (A) (A) (A) (A) (A) (A) (A) (A) (A) (A)
                 (A) (A) (A) (A) (A) (A) (A) (A) (A) (A) (A) (A)
                 (A) (A) (A) (A) (A) (A) (A) (A) (A) (A) (A) (A)
                 (A) (A) (A) (A) (A) (A) (A) (A) (A) (A) (A) (A)
                 (A) (A) (A) (A) (A) (A) (A) (A) (A) (A) (A) (A)
                 (A) (A) (A) (A) (A) (A) (A) (A) (A) (A) (A) (A)
                 (A) (A) (A) (A) (A) (A) (A) (A) (A) (A) (A) (A)
                 (A) (A) (A) (A) (A) (A) (A) (A) (A) (A) (A) (A)
                 (A) (A) (A) (A) (A) (A) (A) (A) (A) (A) (A) (A)
                 (A) (A) (A) (A) (A) (A) (A) (A) (A) (A) (A) (A)
                 (A) (A) (A) (A) (A) (A) (A) (A) (A) (A) (A) (A)
                 (A) (A) (A) (A) (A) (A) (A) (A) (A) (A) (A) (A)
                 (A) (A) (A) (A) (A) (A) (A) (A) (A) (A) (A) (A)
                 (A) (A) (A) (A) (A) (A) (A) (A) (A) (A) (A) (A)
                 (A) (A) (A) (A) (A) (A) (A) (A) (A) (A) (A)
 The electronic state is 1-A.
 Alpha  occ. eigenvalues --  -88.87618 -10.21933 -10.21199 -10.19814 -10.19711
 Alpha  occ. eigenvalues --  -10.19460 -10.19460 -10.19429 -10.19199 -10.19170
 Alpha  occ. eigenvalues --  -10.18903 -10.18897 -10.18793 -10.18540 -10.18386
 Alpha  occ. eigenvalues --  -10.18353 -10.18271 -10.18137 -10.18003 -10.17820
 Alpha  occ. eigenvalues --  -10.17679 -10.17393 -10.17048 -10.17038 -10.16994
 Alpha  occ. eigenvalues --   -7.93683  -5.90195  -5.89838  -5.89167  -0.88062
 Alpha  occ. eigenvalues --   -0.85148  -0.82060  -0.81675  -0.80255  -0.77670
 Alpha  occ. eigenvalues --   -0.76988  -0.75508  -0.73467  -0.72610  -0.71209
 Alpha  occ. eigenvalues --   -0.68143  -0.67909  -0.66804  -0.63781  -0.62896
 Alpha  occ. eigenvalues --   -0.61687  -0.59251  -0.58931  -0.57574  -0.55807
 Alpha  occ. eigenvalues --   -0.54841  -0.53502  -0.51210  -0.48826  -0.48135
 Alpha  occ. eigenvalues --   -0.47209  -0.46955  -0.45767  -0.44546  -0.44267
 Alpha  occ. eigenvalues --   -0.43870  -0.43271  -0.43127  -0.42564  -0.41657
 Alpha  occ. eigenvalues --   -0.41423  -0.41046  -0.40507  -0.40061  -0.38952
 Alpha  occ. eigenvalues --   -0.38404  -0.38156  -0.37797  -0.37401  -0.36881
 Alpha  occ. eigenvalues --   -0.36597  -0.36342  -0.36260  -0.35702  -0.34616
 Alpha  occ. eigenvalues --   -0.33902  -0.33444  -0.32915  -0.32631  -0.32268
 Alpha  occ. eigenvalues --   -0.32013  -0.31708  -0.31352  -0.31020  -0.30233
 Alpha  occ. eigenvalues --   -0.29423  -0.28778  -0.27516  -0.24476  -0.22302
 Alpha  occ. eigenvalues --   -0.20849
 Alpha virt. eigenvalues --   -0.03932  -0.01709   0.03191   0.03931   0.06821
 Alpha virt. eigenvalues --    0.08291   0.08756   0.09494   0.10288   0.10801
 Alpha virt. eigenvalues --    0.11552   0.12113   0.12584   0.12712   0.13020
 Alpha virt. eigenvalues --    0.13968   0.14524   0.14667   0.15144   0.15386
 Alpha virt. eigenvalues --    0.15937   0.16086   0.16246   0.16636   0.16751
 Alpha virt. eigenvalues --    0.17275   0.17885   0.18027   0.18147   0.18341
 Alpha virt. eigenvalues --    0.19001   0.19210   0.19526   0.19810   0.21390
 Alpha virt. eigenvalues --    0.21664   0.21853   0.22361   0.22411   0.23055
 Alpha virt. eigenvalues --    0.23577   0.23841   0.23848   0.24118   0.24460
 Alpha virt. eigenvalues --    0.25152   0.26174   0.26622   0.27186   0.27485
 Alpha virt. eigenvalues --    0.27885   0.28324   0.29620   0.29971   0.32459
 Alpha virt. eigenvalues --    0.33017   0.33776   0.34736   0.36023   0.36933
 Alpha virt. eigenvalues --    0.37523   0.39225   0.41185   0.42070   0.42588
 Alpha virt. eigenvalues --    0.47287   0.49060   0.49306   0.50342   0.50680
 Alpha virt. eigenvalues --    0.51063   0.51408   0.51987   0.52159   0.52483
 Alpha virt. eigenvalues --    0.53208   0.53546   0.54582   0.55268   0.55372
 Alpha virt. eigenvalues --    0.56474   0.56627   0.56979   0.57158   0.57589
 Alpha virt. eigenvalues --    0.58393   0.58867   0.58973   0.59700   0.60232
 Alpha virt. eigenvalues --    0.60851   0.61552   0.61975   0.62947   0.63221
 Alpha virt. eigenvalues --    0.63662   0.64088   0.65494   0.65877   0.66473
 Alpha virt. eigenvalues --    0.67049   0.67979   0.68532   0.69743   0.71066
 Alpha virt. eigenvalues --    0.71826   0.72109   0.72504   0.72616   0.74208
 Alpha virt. eigenvalues --    0.74573   0.75467   0.75912   0.77098   0.77526
 Alpha virt. eigenvalues --    0.79031   0.79659   0.80891   0.81174   0.81971
 Alpha virt. eigenvalues --    0.82627   0.83159   0.83705   0.84390   0.84793
 Alpha virt. eigenvalues --    0.84886   0.85090   0.86232   0.86469   0.87075
 Alpha virt. eigenvalues --    0.87379   0.87393   0.88556   0.89298   0.89386
 Alpha virt. eigenvalues --    0.89773   0.89852   0.90216   0.90438   0.90711
 Alpha virt. eigenvalues --    0.91635   0.91752   0.91966   0.93006   0.93165
 Alpha virt. eigenvalues --    0.93358   0.93663   0.93970   0.94408   0.95469
 Alpha virt. eigenvalues --    0.95705   0.96259   0.96386   0.96504   0.97636
 Alpha virt. eigenvalues --    0.97906   0.98108   0.98805   0.99075   1.00119
 Alpha virt. eigenvalues --    1.00851   1.01371   1.02445   1.02738   1.03821
 Alpha virt. eigenvalues --    1.04928   1.05576   1.06785   1.08511   1.09012
 Alpha virt. eigenvalues --    1.10817   1.11674   1.14897   1.15463   1.16280
 Alpha virt. eigenvalues --    1.18301   1.20881   1.21368   1.23466   1.25464
 Alpha virt. eigenvalues --    1.25786   1.29099   1.30366   1.32070   1.32668
 Alpha virt. eigenvalues --    1.34814   1.36771   1.38226   1.39539   1.40891
 Alpha virt. eigenvalues --    1.42055   1.42599   1.44357   1.45231   1.45367
 Alpha virt. eigenvalues --    1.46319   1.47290   1.48702   1.48809   1.50479
 Alpha virt. eigenvalues --    1.51754   1.53185   1.55257   1.58676   1.60249
 Alpha virt. eigenvalues --    1.60649   1.61591   1.62578   1.63323   1.67816
 Alpha virt. eigenvalues --    1.68971   1.69093   1.72795   1.72982   1.73409
 Alpha virt. eigenvalues --    1.74703   1.75222   1.76069   1.77365   1.77886
 Alpha virt. eigenvalues --    1.80003   1.81078   1.82064   1.82570   1.84227
 Alpha virt. eigenvalues --    1.85099   1.85334   1.88093   1.88132   1.88505
 Alpha virt. eigenvalues --    1.89409   1.90124   1.91017   1.91572   1.92320
 Alpha virt. eigenvalues --    1.93349   1.93659   1.96277   1.96663   1.97285
 Alpha virt. eigenvalues --    1.98074   1.98479   1.98705   1.99233   2.00284
 Alpha virt. eigenvalues --    2.00916   2.01791   2.02247   2.04122   2.05151
 Alpha virt. eigenvalues --    2.07584   2.08414   2.09028   2.09349   2.10151
 Alpha virt. eigenvalues --    2.10877   2.11979   2.13546   2.14046   2.15389
 Alpha virt. eigenvalues --    2.16638   2.19344   2.20468   2.21000   2.22681
 Alpha virt. eigenvalues --    2.23262   2.24287   2.25275   2.25528   2.26125
 Alpha virt. eigenvalues --    2.27596   2.27964   2.28959   2.29899   2.30751
 Alpha virt. eigenvalues --    2.32060   2.32408   2.34223   2.34780   2.34962
 Alpha virt. eigenvalues --    2.35651   2.37251   2.38434   2.41190   2.41798
 Alpha virt. eigenvalues --    2.43724   2.44042   2.44952   2.48532   2.50148
 Alpha virt. eigenvalues --    2.50528   2.51023   2.51950   2.54527   2.56333
 Alpha virt. eigenvalues --    2.58517   2.61297   2.62500   2.64501   2.66364
 Alpha virt. eigenvalues --    2.67111   2.67300   2.68034   2.69702   2.71412
 Alpha virt. eigenvalues --    2.72553   2.73113   2.76075   2.77426   2.77786
 Alpha virt. eigenvalues --    2.81355   2.83386   2.84501   2.87438   2.90313
 Alpha virt. eigenvalues --    2.93554   2.96524   3.00413   3.10541   3.16719
 Alpha virt. eigenvalues --    3.36614   3.46949   3.95056   4.08562   4.11730
 Alpha virt. eigenvalues --    4.12522   4.13671   4.14312   4.15274   4.17957
 Alpha virt. eigenvalues --    4.18866   4.25341   4.28436   4.29006   4.31110
 Alpha virt. eigenvalues --    4.33492   4.36765   4.39833   4.41816   4.43429
 Alpha virt. eigenvalues --    4.46409   4.51486   4.56957   4.58024   4.62698
 Alpha virt. eigenvalues --    4.72490   4.86781
          Condensed to atoms (all electrons):
 Mulliken charges:
               1
     1  C   -0.090132
     2  C   -0.241676
     3  C    0.154936
     4  C    0.058837
     5  C   -0.206846
     6  C   -0.168444
     7  H    0.138530
     8  H    0.152863
     9  C   -0.308851
    10  C    0.044068
    11  H    0.151072
    12  H    0.152639
    13  C    0.050308
    14  C    0.143188
    15  C   -0.359152
    16  C   -0.173505
    17  C   -0.268267
    18  C   -0.271503
    19  H    0.158189
    20  H    0.149809
    21  H    0.140937
    22  H    0.144160
    23  H    0.137702
    24  H    0.140816
    25  C   -0.354370
    26  C   -0.085389
    27  C   -0.275061
    28  H    0.156810
    29  H    0.152538
    30  H    0.134522
    31  H    0.136772
    32  H    0.143506
    33  C   -0.256643
    34  H    0.131274
    35  H    0.132860
    36  H    0.125157
    37  C   -0.460194
    38  H    0.149254
    39  H    0.145026
    40  H    0.150758
    41  S    0.031141
    42  C   -0.416233
    43  H    0.187935
    44  H    0.180213
    45  C   -0.264194
    46  H    0.146328
    47  H    0.148101
    48  C   -0.068518
    49  H    0.130047
    50  C   -0.449261
    51  H    0.145180
    52  H    0.143198
    53  H    0.144541
    54  C   -0.453127
    55  H    0.148612
    56  H    0.143547
    57  H    0.145993
 Sum of Mulliken charges =  -0.00000
 Mulliken charges with hydrogens summed into heavy atoms:
               1
     1  C   -0.090132
     2  C   -0.088813
     3  C    0.154936
     4  C    0.058837
     5  C   -0.055774
     6  C   -0.015804
     9  C   -0.170321
    10  C    0.044068
    13  C    0.050308
    14  C    0.143188
    15  C   -0.051154
    16  C   -0.030000
    17  C    0.016831
    18  C    0.007015
    25  C   -0.045022
    26  C    0.039768
    27  C   -0.003767
    33  C    0.007491
    37  C   -0.015157
    41  S    0.031141
    42  C   -0.048086
    45  C    0.030235
    48  C    0.061529
    50  C   -0.016343
    54  C   -0.014976
 Electronic spatial extent (au):  <R**2>=          16227.0552
 Charge=              0.0000 electrons
 Dipole moment (field-independent basis, Debye):
    X=              2.1734    Y=              1.5479    Z=              2.2718  Tot=              3.5044
 Quadrupole moment (field-independent basis, Debye-Ang):
   XX=           -142.0630   YY=           -152.6772   ZZ=           -164.0000
   XY=             -7.0169   XZ=             -4.6495   YZ=             -3.6176
 Traceless Quadrupole moment (field-independent basis, Debye-Ang):
   XX=             10.8504   YY=              0.2362   ZZ=            -11.0866
   XY=             -7.0169   XZ=             -4.6495   YZ=             -3.6176
 Octapole moment (field-independent basis, Debye-Ang**2):
  XXX=             -3.7214  YYY=             -8.8505  ZZZ=             12.4373  XYY=             16.4028
  XXY=             17.2838  XXZ=             47.2831  XZZ=              9.3289  YZZ=              4.6851
  YYZ=              4.8217  XYZ=              5.0237
 Hexadecapole moment (field-independent basis, Debye-Ang**3):
 XXXX=         -17585.4830 YYYY=          -3396.1482 ZZZZ=           -715.5659 XXXY=           -146.3385
 XXXZ=            -78.4090 YYYX=            -24.3847 YYYZ=            -16.6512 ZZZX=            -29.3086
 ZZZY=             -2.3471 XXYY=          -3594.4561 XXZZ=          -3164.3781 YYZZ=           -702.2712
 XXYZ=            -40.0454 YYXZ=             10.8431 ZZXY=            -26.0733
 N-N= 2.233740385927D+03 E-N=-7.573821061063D+03  KE= 1.321503516303D+03
 No NMR shielding tensors so no spin-rotation constants.
 Leave Link  601 at Wed Nov  8 22:44:12 2023, MaxMem=  5368709120 cpu:               3.9 elap:               0.2
 (Enter /home/Data/zhangqian/application/g16/l9999.exe)
 1\1\GINC-INFRARED\FOpt\RB3LYP\6-31G(d)\C24H32S1\ZHANGQIAN\08-Nov-2023\
 0\\#p opt b3lyp/6-31g(d) scrf=(solvent=water,pcm) empiricaldispersion=
 gd3\\Title Card Required\\0,1\C,-20.4667499243,-8.6384733452,2.5802439
 211\C,-19.09848273,-8.5253642002,2.729950853\C,-18.4649610593,-7.25464
 87945,2.7667941679\C,-19.2583450602,-6.0647583069,2.6766976308\C,-20.6
 658900206,-6.217857893,2.5246125425\C,-21.2542166425,-7.4615457497,2.4
 65214568\H,-16.4616996983,-8.0459083362,3.0061183075\H,-18.4846776679,
 -9.4174474041,2.8235707916\C,-17.0572274619,-7.1399398446,2.9128851575
 \C,-18.6163086275,-4.7820817083,2.7213179288\H,-21.2949780314,-5.33947
 0556,2.4288037942\H,-22.3276928673,-7.5466926506,2.3236146463\C,-17.23
 45695577,-4.7169818054,2.8101734929\C,-16.4502019301,-5.9073541342,2.9
 385495436\C,-14.9657259915,-5.7293975072,3.1353212019\C,-16.4568462485
 ,-3.4124458688,2.7486415165\C,-14.347168473,-4.771800496,2.090547446\C
 ,-15.2756515099,-3.5736151834,1.7634707925\H,-14.802131633,-5.30354088
 18,4.1363802061\H,-14.4528360946,-6.6971738454,3.1236569776\H,-13.3803
 913044,-4.420249973,2.4679339459\H,-14.1382717771,-5.3316915944,1.1719
 99586\H,-15.7041490036,-3.7025587909,0.7614407946\H,-14.7045934719,-2.
 637852997,1.7382270024\C,-19.4532884341,-3.5160409227,2.6789505707\C,-
 18.6769255055,-2.2621481652,3.1105368628\C,-17.3410083699,-2.220893886
 9,2.3626592794\H,-19.8507397833,-3.3785388062,1.6629066336\H,-20.32947
 10479,-3.6303181086,3.3295777183\H,-16.8059833605,-1.2839166499,2.5650
 214608\H,-17.529867487,-2.24959445,1.2801152269\H,-16.0387201541,-3.21
 6912764,3.7499628196\C,-19.5052699843,-0.970775121,2.9648096942\H,-20.
 4371720921,-1.087628666,3.535819873\H,-18.9504217323,-0.1543765963,3.4
 474522912\H,-18.4499984739,-2.3750098655,4.1822136741\C,-19.844648901,
 -0.5531810802,1.5274278347\H,-20.4239527357,-1.321486721,1.0029364075\
 H,-20.4422541825,0.3654868127,1.5269335285\H,-18.9403551237,-0.3590668
 312,0.9398988081\S,-21.2264077266,-10.2598613732,2.4693029772\C,-22.33
 57105766,-10.2271051395,3.9504903126\H,-22.9637572938,-9.3352804461,3.
 8826598576\H,-21.7100182785,-10.1392208203,4.8449658311\C,-23.18126253
 11,-11.5014912285,3.998804441\H,-23.8256518868,-11.5484756006,3.109594
 1746\H,-22.5171201766,-12.3751862199,3.9533606798\C,-24.0566664668,-11
 .6127385398,5.2641094823\H,-23.3909985252,-11.5484921384,6.138162808\C
 ,-24.7547143428,-12.9802228647,5.2980849345\H,-25.3512225295,-13.09513
 77797,6.2107167762\H,-25.4309115418,-13.0915157697,4.4402843484\H,-24.
 0286789155,-13.8011694152,5.2619366966\C,-25.0886106899,-10.4793038369
 ,5.3633997659\H,-24.6160674543,-9.493801359,5.4357362253\H,-25.7433013
 821,-10.4755015486,4.4818251495\H,-25.721329268,-10.6077094912,6.24942
 79209\\Version=ES64L-G16RevA.03\State=1-A\HF=-1332.1332197\RMSD=9.129e
 -09\RMSF=1.244e-06\Dipole=0.1823282,1.1391856,0.7549592\Quadrupole=7.7
 78398,-1.1625929,-6.6158051,4.0643773,-3.0141375,-5.8743138\PG=C01 [X(
 C24H32S1)]\\@


 ERWIN WITH HIS PSI CAN DO
 CALCULATIONS QUITE A FEW.
 BUT ONE THING HAS NOT BEEN SEEN
 JUST WHAT DOES PSI REALLY MEAN.
 -- WALTER HUCKEL, TRANS. BY FELIX BLOCH
 Job cpu time:       0 days  5 hours 35 minutes 43.3 seconds.
 Elapsed time:       0 days  0 hours 14 minutes 31.9 seconds.
 File lengths (MBytes):  RWF=    577 Int=      0 D2E=      0 Chk=     24 Scr=      1
 Normal termination of Gaussian 16 at Wed Nov  8 22:44:12 2023.
