 Entering Gaussian System, Link 0=g16
 Input=resin6.gjf
 Output=resin6.log
 Initial command:
 /home/Data/zhangqian/application/g16/l1.exe "./Gau-81085.inp" -scrdir="./"
 Default is to use a total of  24 processors:
                               24 via shared-memory
                                1 via Linda
 Entering Link 1 = /home/Data/zhangqian/application/g16/l1.exe PID=     81087.
  
 Copyright (c) 1988,1990,1992,1993,1995,1998,2003,2009,2016,
            Gaussian, Inc.  All Rights Reserved.
  
 This is part of the Gaussian(R) 16 program.  It is based on
 the Gaussian(R) 09 system (copyright 2009, Gaussian, Inc.),
 the Gaussian(R) 03 system (copyright 2003, Gaussian, Inc.),
 the Gaussian(R) 98 system (copyright 1998, Gaussian, Inc.),
 the Gaussian(R) 94 system (copyright 1995, Gaussian, Inc.),
 the Gaussian 92(TM) system (copyright 1992, Gaussian, Inc.),
 the Gaussian 90(TM) system (copyright 1990, Gaussian, Inc.),
 the Gaussian 88(TM) system (copyright 1988, Gaussian, Inc.),
 the Gaussian 86(TM) system (copyright 1986, Carnegie Mellon
 University), and the Gaussian 82(TM) system (copyright 1983,
 Carnegie Mellon University). Gaussian is a federally registered
 trademark of Gaussian, Inc.
  
 This software contains proprietary and confidential information,
 including trade secrets, belonging to Gaussian, Inc.
  
 This software is provided under written license and may be
 used, copied, transmitted, or stored only in accord with that
 written license.
  
 The following legend is applicable only to US Government
 contracts under FAR:
  
                    RESTRICTED RIGHTS LEGEND
  
 Use, reproduction and disclosure by the US Government is
 subject to restrictions as set forth in subparagraphs (a)
 and (c) of the Commercial Computer Software - Restricted
 Rights clause in FAR 52.227-19.
  
 Gaussian, Inc.
 340 Quinnipiac St., Bldg. 40, Wallingford CT 06492
  
  
 ---------------------------------------------------------------
 Warning -- This program may not be used in any manner that
 competes with the business of Gaussian, Inc. or will provide
 assistance to any competitor of Gaussian, Inc.  The licensee
 of this program is prohibited from giving any competitor of
 Gaussian, Inc. access to this program.  By using this program,
 the user acknowledges that Gaussian, Inc. is engaged in the
 business of creating and licensing software in the field of
 computational chemistry and represents and warrants to the
 licensee that it is not a competitor of Gaussian, Inc. and that
 it will not use this program in any manner prohibited above.
 ---------------------------------------------------------------
  

 Cite this work as:
 Gaussian 16, Revision A.03,
 M. J. Frisch, G. W. Trucks, H. B. Schlegel, G. E. Scuseria, 
 M. A. Robb, J. R. Cheeseman, G. Scalmani, V. Barone, 
 G. A. Petersson, H. Nakatsuji, X. Li, M. Caricato, A. V. Marenich, 
 J. Bloino, B. G. Janesko, R. Gomperts, B. Mennucci, H. P. Hratchian, 
 J. V. Ortiz, A. F. Izmaylov, J. L. Sonnenberg, D. Williams-Young, 
 F. Ding, F. Lipparini, F. Egidi, J. Goings, B. Peng, A. Petrone, 
 T. Henderson, D. Ranasinghe, V. G. Zakrzewski, J. Gao, N. Rega, 
 G. Zheng, W. Liang, M. Hada, M. Ehara, K. Toyota, R. Fukuda, 
 J. Hasegawa, M. Ishida, T. Nakajima, Y. Honda, O. Kitao, H. Nakai, 
 T. Vreven, K. Throssell, J. A. Montgomery, Jr., J. E. Peralta, 
 F. Ogliaro, M. J. Bearpark, J. J. Heyd, E. N. Brothers, K. N. Kudin, 
 V. N. Staroverov, T. A. Keith, R. Kobayashi, J. Normand, 
 K. Raghavachari, A. P. Rendell, J. C. Burant, S. S. Iyengar, 
 J. Tomasi, M. Cossi, J. M. Millam, M. Klene, C. Adamo, R. Cammi, 
 J. W. Ochterski, R. L. Martin, K. Morokuma, O. Farkas, 
 J. B. Foresman, and D. J. Fox, Gaussian, Inc., Wallingford CT, 2016.
 
 ******************************************
 Gaussian 16:  ES64L-G16RevA.03 25-Dec-2016
                 8-Nov-2023 
 ******************************************
 %nprocshared=24
 Will use up to   24 processors via shared memory.
 %mem=40GB
 %chk=resin6.chk
 ----------------------------------------------------------------------
 #p opt b3lyp/6-31g(d) scrf=(solvent=water,pcm) empiricaldispersion=gd3
 ----------------------------------------------------------------------
 1/18=20,19=15,26=3,38=1/1,3;
 2/9=110,12=2,17=6,18=5,40=1/2;
 3/5=1,6=6,7=1,11=2,25=1,30=1,70=2201,71=1,72=1,74=-5,124=31/1,2,3;
 4//1;
 5/5=2,38=5,53=1/2;
 6/7=2,8=2,9=2,10=2,28=1/1;
 7//1,2,3,16;
 1/18=20,19=15,26=3/3(2);
 2/9=110/2;
 99//99;
 2/9=110/2;
 3/5=1,6=6,7=1,11=2,25=1,30=1,70=2205,71=1,72=1,74=-5,124=31/1,2,3;
 4/5=5,16=3,69=1/1;
 5/5=2,38=5,53=1/2;
 7//1,2,3,16;
 1/18=20,19=15,26=3/3(-5);
 2/9=110/2;
 6/7=2,8=2,9=2,10=2,19=2,28=1/1;
 99/9=1/99;
 Leave Link    1 at Wed Nov  8 22:31:30 2023, MaxMem=  5368709120 cpu:               1.1 elap:               0.1
 (Enter /home/Data/zhangqian/application/g16/l101.exe)
 -------------------
 Title Card Required
 -------------------
 Symbolic Z-matrix:
 Charge =  0 Multiplicity = 1
 C                    -14.84836  -9.33397   9.18058 
 C                    -16.33343  -9.33397   9.18058 
 C                    -17.02269  -8.07569   9.18058 
 C                    -16.31255  -6.92058   9.18058 
 C                    -14.86925  -6.92058   9.18058 
 C                    -14.1591  -8.07569   9.18058 
 C                    -15.5909  -11.55502   9.18058 
 C                    -16.77631  -10.62551   9.18058 
 H                    -13.05952  -8.08327   9.18058 
 H                    -17.80139  -10.9881   9.18058 
 S                    -14.40548  -10.62551   9.18058 
 C                    -15.5909  -13.09502   9.18058 
 H                    -15.0848  -13.45169   10.05325 
 H                    -16.5997  -13.45169   9.18253 
 C                    -14.86737  -13.60835   7.92177 
 H                    -13.81275  -13.46642   8.03371 
 H                    -15.21149  -13.06554   7.06629 
 C                    -15.16645  -15.1072   7.73309 
 H                    -14.89397  -15.63971   8.62027 
 C                    -16.66965  -15.30028   7.45977 
 H                    -16.82807  -16.24946   6.99195 
 H                    -17.20776  -15.26388   8.3839 
 H                    -17.01756  -14.52165   6.81355 
 C                    -14.3545  -15.64656   6.54085 
 H                    -13.311   -15.49407   6.72182 
 H                    -14.54682  -16.69244   6.42231 
 H                    -14.64152  -15.12793   5.65005 
 C                    -14.16084  -5.55318   9.18058 
 H                    -13.52912  -5.52436   8.31744 
 C                    -16.19096  -4.25599   9.18058 
 C                    -17.02095  -5.55318   9.18058 
 C                    -18.55935  -5.48298   9.18058 
 C                    -18.56266  -8.0863    9.18058 
 H                    -18.85025  -4.92148   8.31744 
 H                    -18.86684  -8.64336   10.04201 
 C                    -19.38935  -6.78018   9.18058 
 H                    -18.86684  -8.64336   8.31915 
 H                    -20.01525  -6.77864   10.04842 
 H                    -20.01525  -6.77864   8.31274 
 H                    -18.85025  -4.92148   10.04371 
 H                    -17.02095  -5.55318   10.25058 
 H                    -13.52912  -5.52436   10.04371 
 C                    -14.99084  -4.25599   9.18058 
 H                    -14.82133  -3.66193   10.05423 
 C                    -14.74687  -3.40099   7.92317 
 H                    -13.70495  -3.17025   7.8454 
 H                    -15.05732  -3.94542   7.05592 
 C                    -15.5557  -2.09453   8.0259 
 H                    -15.04135  -1.31466   7.50423 
 H                    -16.52218  -2.23817   7.58979 
 H                    -15.66556  -1.82304   9.05503 
 H                    -16.49607  -3.69855   8.31972 
 H                    -16.49607  -3.69855   10.04143 
 
 ITRead=  0  0  0  0  0  0  0  0  0  0  0  0  0  0  0  0  0  0  0  0
 ITRead=  0  0  0  0  0  0  0  0  0  0  0  0  0  0  0  0  0  0  0  0
 ITRead=  0  0  0  0  0  0  0  0  0  0  0  0  0
 MicOpt= -1 -1 -1 -1 -1 -1 -1 -1 -1 -1 -1 -1 -1 -1 -1 -1 -1 -1 -1 -1
 MicOpt= -1 -1 -1 -1 -1 -1 -1 -1 -1 -1 -1 -1 -1 -1 -1 -1 -1 -1 -1 -1
 MicOpt= -1 -1 -1 -1 -1 -1 -1 -1 -1 -1 -1 -1 -1
 NAtoms=     53 NQM=       53 NQMF=       0 NMMI=      0 NMMIF=      0
                NMic=       0 NMicF=      0.
                    Isotopes and Nuclear Properties:
 (Nuclear quadrupole moments (NQMom) in fm**2, nuclear magnetic moments (NMagM)
  in nuclear magnetons)

  Atom         1           2           3           4           5           6           7           8           9          10
 IAtWgt=          12          12          12          12          12          12          12          12           1           1
 AtmWgt=  12.0000000  12.0000000  12.0000000  12.0000000  12.0000000  12.0000000  12.0000000  12.0000000   1.0078250   1.0078250
 NucSpn=           0           0           0           0           0           0           0           0           1           1
 AtZEff=  -0.0000000  -0.0000000  -0.0000000  -0.0000000  -0.0000000  -0.0000000  -0.0000000  -0.0000000  -0.0000000  -0.0000000
 NQMom=    0.0000000   0.0000000   0.0000000   0.0000000   0.0000000   0.0000000   0.0000000   0.0000000   0.0000000   0.0000000
 NMagM=    0.0000000   0.0000000   0.0000000   0.0000000   0.0000000   0.0000000   0.0000000   0.0000000   2.7928460   2.7928460
 AtZNuc=   6.0000000   6.0000000   6.0000000   6.0000000   6.0000000   6.0000000   6.0000000   6.0000000   1.0000000   1.0000000

  Atom        11          12          13          14          15          16          17          18          19          20
 IAtWgt=          32          12           1           1          12           1           1          12           1          12
 AtmWgt=  31.9720718  12.0000000   1.0078250   1.0078250  12.0000000   1.0078250   1.0078250  12.0000000   1.0078250  12.0000000
 NucSpn=           0           0           1           1           0           1           1           0           1           0
 AtZEff=  -0.0000000  -0.0000000  -0.0000000  -0.0000000  -0.0000000  -0.0000000  -0.0000000  -0.0000000  -0.0000000  -0.0000000
 NQMom=    0.0000000   0.0000000   0.0000000   0.0000000   0.0000000   0.0000000   0.0000000   0.0000000   0.0000000   0.0000000
 NMagM=    0.0000000   0.0000000   2.7928460   2.7928460   0.0000000   2.7928460   2.7928460   0.0000000   2.7928460   0.0000000
 AtZNuc=  16.0000000   6.0000000   1.0000000   1.0000000   6.0000000   1.0000000   1.0000000   6.0000000   1.0000000   6.0000000

  Atom        21          22          23          24          25          26          27          28          29          30
 IAtWgt=           1           1           1          12           1           1           1          12           1          12
 AtmWgt=   1.0078250   1.0078250   1.0078250  12.0000000   1.0078250   1.0078250   1.0078250  12.0000000   1.0078250  12.0000000
 NucSpn=           1           1           1           0           1           1           1           0           1           0
 AtZEff=  -0.0000000  -0.0000000  -0.0000000  -0.0000000  -0.0000000  -0.0000000  -0.0000000  -0.0000000  -0.0000000  -0.0000000
 NQMom=    0.0000000   0.0000000   0.0000000   0.0000000   0.0000000   0.0000000   0.0000000   0.0000000   0.0000000   0.0000000
 NMagM=    2.7928460   2.7928460   2.7928460   0.0000000   2.7928460   2.7928460   2.7928460   0.0000000   2.7928460   0.0000000
 AtZNuc=   1.0000000   1.0000000   1.0000000   6.0000000   1.0000000   1.0000000   1.0000000   6.0000000   1.0000000   6.0000000

  Atom        31          32          33          34          35          36          37          38          39          40
 IAtWgt=          12          12          12           1           1          12           1           1           1           1
 AtmWgt=  12.0000000  12.0000000  12.0000000   1.0078250   1.0078250  12.0000000   1.0078250   1.0078250   1.0078250   1.0078250
 NucSpn=           0           0           0           1           1           0           1           1           1           1
 AtZEff=  -0.0000000  -0.0000000  -0.0000000  -0.0000000  -0.0000000  -0.0000000  -0.0000000  -0.0000000  -0.0000000  -0.0000000
 NQMom=    0.0000000   0.0000000   0.0000000   0.0000000   0.0000000   0.0000000   0.0000000   0.0000000   0.0000000   0.0000000
 NMagM=    0.0000000   0.0000000   0.0000000   2.7928460   2.7928460   0.0000000   2.7928460   2.7928460   2.7928460   2.7928460
 AtZNuc=   6.0000000   6.0000000   6.0000000   1.0000000   1.0000000   6.0000000   1.0000000   1.0000000   1.0000000   1.0000000

  Atom        41          42          43          44          45          46          47          48          49          50
 IAtWgt=           1           1          12           1          12           1           1          12           1           1
 AtmWgt=   1.0078250   1.0078250  12.0000000   1.0078250  12.0000000   1.0078250   1.0078250  12.0000000   1.0078250   1.0078250
 NucSpn=           1           1           0           1           0           1           1           0           1           1
 AtZEff=  -0.0000000  -0.0000000  -0.0000000  -0.0000000  -0.0000000  -0.0000000  -0.0000000  -0.0000000  -0.0000000  -0.0000000
 NQMom=    0.0000000   0.0000000   0.0000000   0.0000000   0.0000000   0.0000000   0.0000000   0.0000000   0.0000000   0.0000000
 NMagM=    2.7928460   2.7928460   0.0000000   2.7928460   0.0000000   2.7928460   2.7928460   0.0000000   2.7928460   2.7928460
 AtZNuc=   1.0000000   1.0000000   6.0000000   1.0000000   6.0000000   1.0000000   1.0000000   6.0000000   1.0000000   1.0000000

  Atom        51          52          53
 IAtWgt=           1           1           1
 AtmWgt=   1.0078250   1.0078250   1.0078250
 NucSpn=           1           1           1
 AtZEff=  -0.0000000  -0.0000000  -0.0000000
 NQMom=    0.0000000   0.0000000   0.0000000
 NMagM=    2.7928460   2.7928460   2.7928460
 AtZNuc=   1.0000000   1.0000000   1.0000000
 Leave Link  101 at Wed Nov  8 22:31:31 2023, MaxMem=  5368709120 cpu:              15.0 elap:               0.6
 (Enter /home/Data/zhangqian/application/g16/l103.exe)

 GradGradGradGradGradGradGradGradGradGradGradGradGradGradGradGradGradGrad
 Berny optimization.
 Initialization pass.
                           ----------------------------
                           !    Initial Parameters    !
                           ! (Angstroms and Degrees)  !
 --------------------------                            --------------------------
 ! Name  Definition              Value          Derivative Info.                !
 --------------------------------------------------------------------------------
 ! R1    R(1,2)                  1.4851         estimate D2E/DX2                !
 ! R2    R(1,6)                  1.4347         estimate D2E/DX2                !
 ! R3    R(1,11)                 1.3654         estimate D2E/DX2                !
 ! R4    R(2,3)                  1.4347         estimate D2E/DX2                !
 ! R5    R(2,8)                  1.3654         estimate D2E/DX2                !
 ! R6    R(3,4)                  1.3559         estimate D2E/DX2                !
 ! R7    R(3,33)                 1.54           estimate D2E/DX2                !
 ! R8    R(4,5)                  1.4433         estimate D2E/DX2                !
 ! R9    R(4,31)                 1.54           estimate D2E/DX2                !
 ! R10   R(5,6)                  1.3559         estimate D2E/DX2                !
 ! R11   R(5,28)                 1.54           estimate D2E/DX2                !
 ! R12   R(6,9)                  1.0996         estimate D2E/DX2                !
 ! R13   R(7,8)                  1.5064         estimate D2E/DX2                !
 ! R14   R(7,11)                 1.5064         estimate D2E/DX2                !
 ! R15   R(7,12)                 1.54           estimate D2E/DX2                !
 ! R16   R(8,10)                 1.0873         estimate D2E/DX2                !
 ! R17   R(12,13)                1.07           estimate D2E/DX2                !
 ! R18   R(12,14)                1.07           estimate D2E/DX2                !
 ! R19   R(12,15)                1.54           estimate D2E/DX2                !
 ! R20   R(15,16)                1.07           estimate D2E/DX2                !
 ! R21   R(15,17)                1.07           estimate D2E/DX2                !
 ! R22   R(15,18)                1.54           estimate D2E/DX2                !
 ! R23   R(18,19)                1.07           estimate D2E/DX2                !
 ! R24   R(18,20)                1.54           estimate D2E/DX2                !
 ! R25   R(18,24)                1.54           estimate D2E/DX2                !
 ! R26   R(20,21)                1.07           estimate D2E/DX2                !
 ! R27   R(20,22)                1.07           estimate D2E/DX2                !
 ! R28   R(20,23)                1.07           estimate D2E/DX2                !
 ! R29   R(24,25)                1.07           estimate D2E/DX2                !
 ! R30   R(24,26)                1.07           estimate D2E/DX2                !
 ! R31   R(24,27)                1.07           estimate D2E/DX2                !
 ! R32   R(28,29)                1.07           estimate D2E/DX2                !
 ! R33   R(28,42)                1.07           estimate D2E/DX2                !
 ! R34   R(28,43)                1.54           estimate D2E/DX2                !
 ! R35   R(30,31)                1.54           estimate D2E/DX2                !
 ! R36   R(30,43)                1.2001         estimate D2E/DX2                !
 ! R37   R(30,52)                1.07           estimate D2E/DX2                !
 ! R38   R(30,53)                1.07           estimate D2E/DX2                !
 ! R39   R(31,32)                1.54           estimate D2E/DX2                !
 ! R40   R(31,41)                1.07           estimate D2E/DX2                !
 ! R41   R(32,34)                1.07           estimate D2E/DX2                !
 ! R42   R(32,36)                1.54           estimate D2E/DX2                !
 ! R43   R(32,40)                1.07           estimate D2E/DX2                !
 ! R44   R(33,35)                1.07           estimate D2E/DX2                !
 ! R45   R(33,36)                1.5458         estimate D2E/DX2                !
 ! R46   R(33,37)                1.07           estimate D2E/DX2                !
 ! R47   R(36,38)                1.07           estimate D2E/DX2                !
 ! R48   R(36,39)                1.07           estimate D2E/DX2                !
 ! R49   R(43,44)                1.07           estimate D2E/DX2                !
 ! R50   R(43,45)                1.54           estimate D2E/DX2                !
 ! R51   R(45,46)                1.07           estimate D2E/DX2                !
 ! R52   R(45,47)                1.07           estimate D2E/DX2                !
 ! R53   R(45,48)                1.54           estimate D2E/DX2                !
 ! R54   R(48,49)                1.07           estimate D2E/DX2                !
 ! R55   R(48,50)                1.07           estimate D2E/DX2                !
 ! R56   R(48,51)                1.07           estimate D2E/DX2                !
 ! A1    A(2,1,6)              118.713          estimate D2E/DX2                !
 ! A2    A(2,1,11)             108.9272         estimate D2E/DX2                !
 ! A3    A(6,1,11)             132.3598         estimate D2E/DX2                !
 ! A4    A(1,2,3)              118.713          estimate D2E/DX2                !
 ! A5    A(1,2,8)              108.9272         estimate D2E/DX2                !
 ! A6    A(3,2,8)              132.3598         estimate D2E/DX2                !
 ! A7    A(2,3,4)              119.7045         estimate D2E/DX2                !
 ! A8    A(2,3,33)             118.3181         estimate D2E/DX2                !
 ! A9    A(4,3,33)             121.9773         estimate D2E/DX2                !
 ! A10   A(3,4,5)              121.5825         estimate D2E/DX2                !
 ! A11   A(3,4,31)             121.0302         estimate D2E/DX2                !
 ! A12   A(5,4,31)             117.3873         estimate D2E/DX2                !
 ! A13   A(4,5,6)              121.5825         estimate D2E/DX2                !
 ! A14   A(4,5,28)             117.3873         estimate D2E/DX2                !
 ! A15   A(6,5,28)             121.0302         estimate D2E/DX2                !
 ! A16   A(1,6,5)              119.7045         estimate D2E/DX2                !
 ! A17   A(1,6,9)              118.3181         estimate D2E/DX2                !
 ! A18   A(5,6,9)              121.9773         estimate D2E/DX2                !
 ! A19   A(8,7,11)             103.7983         estimate D2E/DX2                !
 ! A20   A(8,7,12)             128.1009         estimate D2E/DX2                !
 ! A21   A(11,7,12)            128.1009         estimate D2E/DX2                !
 ! A22   A(2,8,7)              109.1737         estimate D2E/DX2                !
 ! A23   A(2,8,10)             128.4068         estimate D2E/DX2                !
 ! A24   A(7,8,10)             122.4196         estimate D2E/DX2                !
 ! A25   A(1,11,7)             109.1737         estimate D2E/DX2                !
 ! A26   A(7,12,13)            109.4712         estimate D2E/DX2                !
 ! A27   A(7,12,14)            109.4712         estimate D2E/DX2                !
 ! A28   A(7,12,15)            109.4712         estimate D2E/DX2                !
 ! A29   A(13,12,14)           109.4712         estimate D2E/DX2                !
 ! A30   A(13,12,15)           109.4713         estimate D2E/DX2                !
 ! A31   A(14,12,15)           109.4712         estimate D2E/DX2                !
 ! A32   A(12,15,16)           109.4712         estimate D2E/DX2                !
 ! A33   A(12,15,17)           109.4712         estimate D2E/DX2                !
 ! A34   A(12,15,18)           109.4712         estimate D2E/DX2                !
 ! A35   A(16,15,17)           109.4712         estimate D2E/DX2                !
 ! A36   A(16,15,18)           109.4713         estimate D2E/DX2                !
 ! A37   A(17,15,18)           109.4712         estimate D2E/DX2                !
 ! A38   A(15,18,19)           109.4712         estimate D2E/DX2                !
 ! A39   A(15,18,20)           109.4712         estimate D2E/DX2                !
 ! A40   A(15,18,24)           109.4712         estimate D2E/DX2                !
 ! A41   A(19,18,20)           109.4712         estimate D2E/DX2                !
 ! A42   A(19,18,24)           109.4713         estimate D2E/DX2                !
 ! A43   A(20,18,24)           109.4712         estimate D2E/DX2                !
 ! A44   A(18,20,21)           109.4712         estimate D2E/DX2                !
 ! A45   A(18,20,22)           109.4712         estimate D2E/DX2                !
 ! A46   A(18,20,23)           109.4712         estimate D2E/DX2                !
 ! A47   A(21,20,22)           109.4713         estimate D2E/DX2                !
 ! A48   A(21,20,23)           109.4712         estimate D2E/DX2                !
 ! A49   A(22,20,23)           109.4712         estimate D2E/DX2                !
 ! A50   A(18,24,25)           109.4712         estimate D2E/DX2                !
 ! A51   A(18,24,26)           109.4712         estimate D2E/DX2                !
 ! A52   A(18,24,27)           109.4712         estimate D2E/DX2                !
 ! A53   A(25,24,26)           109.4713         estimate D2E/DX2                !
 ! A54   A(25,24,27)           109.4712         estimate D2E/DX2                !
 ! A55   A(26,24,27)           109.4712         estimate D2E/DX2                !
 ! A56   A(5,28,29)            107.1877         estimate D2E/DX2                !
 ! A57   A(5,28,42)            107.1877         estimate D2E/DX2                !
 ! A58   A(5,28,43)            120.0            estimate D2E/DX2                !
 ! A59   A(29,28,42)           107.5431         estimate D2E/DX2                !
 ! A60   A(29,28,43)           107.1877         estimate D2E/DX2                !
 ! A61   A(42,28,43)           107.1877         estimate D2E/DX2                !
 ! A62   A(31,30,43)           122.6127         estimate D2E/DX2                !
 ! A63   A(31,30,52)           106.5677         estimate D2E/DX2                !
 ! A64   A(31,30,53)           106.5677         estimate D2E/DX2                !
 ! A65   A(43,30,52)           106.5677         estimate D2E/DX2                !
 ! A66   A(43,30,53)           106.5677         estimate D2E/DX2                !
 ! A67   A(52,30,53)           107.131          estimate D2E/DX2                !
 ! A68   A(4,31,30)            120.0            estimate D2E/DX2                !
 ! A69   A(4,31,32)            120.0            estimate D2E/DX2                !
 ! A70   A(4,31,41)             90.0            estimate D2E/DX2                !
 ! A71   A(30,31,32)           120.0            estimate D2E/DX2                !
 ! A72   A(30,31,41)            90.0            estimate D2E/DX2                !
 ! A73   A(32,31,41)            90.0            estimate D2E/DX2                !
 ! A74   A(31,32,34)           107.1877         estimate D2E/DX2                !
 ! A75   A(31,32,36)           120.0            estimate D2E/DX2                !
 ! A76   A(31,32,40)           107.1877         estimate D2E/DX2                !
 ! A77   A(34,32,36)           107.1877         estimate D2E/DX2                !
 ! A78   A(34,32,40)           107.5431         estimate D2E/DX2                !
 ! A79   A(36,32,40)           107.1877         estimate D2E/DX2                !
 ! A80   A(3,33,35)            106.7302         estimate D2E/DX2                !
 ! A81   A(3,33,36)            121.9362         estimate D2E/DX2                !
 ! A82   A(3,33,37)            106.7302         estimate D2E/DX2                !
 ! A83   A(35,33,36)           106.7302         estimate D2E/DX2                !
 ! A84   A(35,33,37)           107.2347         estimate D2E/DX2                !
 ! A85   A(36,33,37)           106.7302         estimate D2E/DX2                !
 ! A86   A(32,36,33)           115.0562         estimate D2E/DX2                !
 ! A87   A(32,36,38)           108.3037         estimate D2E/DX2                !
 ! A88   A(32,36,39)           108.3037         estimate D2E/DX2                !
 ! A89   A(33,36,38)           108.3037         estimate D2E/DX2                !
 ! A90   A(33,36,39)           108.3037         estimate D2E/DX2                !
 ! A91   A(38,36,39)           108.4003         estimate D2E/DX2                !
 ! A92   A(28,43,30)           122.6127         estimate D2E/DX2                !
 ! A93   A(28,43,44)           112.475          estimate D2E/DX2                !
 ! A94   A(28,43,45)           112.4748         estimate D2E/DX2                !
 ! A95   A(30,43,44)            99.1147         estimate D2E/DX2                !
 ! A96   A(30,43,45)            99.115          estimate D2E/DX2                !
 ! A97   A(44,43,45)           109.4712         estimate D2E/DX2                !
 ! A98   A(43,45,46)           109.4712         estimate D2E/DX2                !
 ! A99   A(43,45,47)           109.4712         estimate D2E/DX2                !
 ! A100  A(43,45,48)           109.4712         estimate D2E/DX2                !
 ! A101  A(46,45,47)           109.4712         estimate D2E/DX2                !
 ! A102  A(46,45,48)           109.4713         estimate D2E/DX2                !
 ! A103  A(47,45,48)           109.4712         estimate D2E/DX2                !
 ! A104  A(45,48,49)           109.4712         estimate D2E/DX2                !
 ! A105  A(45,48,50)           109.4712         estimate D2E/DX2                !
 ! A106  A(45,48,51)           109.4712         estimate D2E/DX2                !
 ! A107  A(49,48,50)           109.4713         estimate D2E/DX2                !
 ! A108  A(49,48,51)           109.4712         estimate D2E/DX2                !
 ! A109  A(50,48,51)           109.4712         estimate D2E/DX2                !
 ! D1    D(6,1,2,3)              0.0            estimate D2E/DX2                !
 ! D2    D(6,1,2,8)            180.0            estimate D2E/DX2                !
 ! D3    D(11,1,2,3)           180.0            estimate D2E/DX2                !
 ! D4    D(11,1,2,8)             0.0            estimate D2E/DX2                !
 ! D5    D(2,1,6,5)              0.0            estimate D2E/DX2                !
 ! D6    D(2,1,6,9)            180.0            estimate D2E/DX2                !
 ! D7    D(11,1,6,5)           180.0            estimate D2E/DX2                !
 ! D8    D(11,1,6,9)             0.0            estimate D2E/DX2                !
 ! D9    D(2,1,11,7)             0.0            estimate D2E/DX2                !
 ! D10   D(6,1,11,7)           180.0            estimate D2E/DX2                !
 ! D11   D(1,2,3,4)              0.0            estimate D2E/DX2                !
 ! D12   D(1,2,3,33)           180.0            estimate D2E/DX2                !
 ! D13   D(8,2,3,4)            180.0            estimate D2E/DX2                !
 ! D14   D(8,2,3,33)             0.0            estimate D2E/DX2                !
 ! D15   D(1,2,8,7)              0.0            estimate D2E/DX2                !
 ! D16   D(1,2,8,10)           180.0            estimate D2E/DX2                !
 ! D17   D(3,2,8,7)            180.0            estimate D2E/DX2                !
 ! D18   D(3,2,8,10)             0.0            estimate D2E/DX2                !
 ! D19   D(2,3,4,5)              0.0            estimate D2E/DX2                !
 ! D20   D(2,3,4,31)           180.0            estimate D2E/DX2                !
 ! D21   D(33,3,4,5)           180.0            estimate D2E/DX2                !
 ! D22   D(33,3,4,31)            0.0            estimate D2E/DX2                !
 ! D23   D(2,3,33,35)           57.2097         estimate D2E/DX2                !
 ! D24   D(2,3,33,36)          180.0            estimate D2E/DX2                !
 ! D25   D(2,3,33,37)          -57.2097         estimate D2E/DX2                !
 ! D26   D(4,3,33,35)         -122.7903         estimate D2E/DX2                !
 ! D27   D(4,3,33,36)            0.0            estimate D2E/DX2                !
 ! D28   D(4,3,33,37)          122.7903         estimate D2E/DX2                !
 ! D29   D(3,4,5,6)              0.0            estimate D2E/DX2                !
 ! D30   D(3,4,5,28)           180.0            estimate D2E/DX2                !
 ! D31   D(31,4,5,6)           180.0            estimate D2E/DX2                !
 ! D32   D(31,4,5,28)            0.0            estimate D2E/DX2                !
 ! D33   D(3,4,31,30)          180.0            estimate D2E/DX2                !
 ! D34   D(3,4,31,32)            0.0            estimate D2E/DX2                !
 ! D35   D(3,4,31,41)           90.0            estimate D2E/DX2                !
 ! D36   D(5,4,31,30)            0.0            estimate D2E/DX2                !
 ! D37   D(5,4,31,32)          180.0            estimate D2E/DX2                !
 ! D38   D(5,4,31,41)          -90.0            estimate D2E/DX2                !
 ! D39   D(4,5,6,1)              0.0            estimate D2E/DX2                !
 ! D40   D(4,5,6,9)            180.0            estimate D2E/DX2                !
 ! D41   D(28,5,6,1)           180.0            estimate D2E/DX2                !
 ! D42   D(28,5,6,9)             0.0            estimate D2E/DX2                !
 ! D43   D(4,5,28,29)         -122.3949         estimate D2E/DX2                !
 ! D44   D(4,5,28,42)          122.3949         estimate D2E/DX2                !
 ! D45   D(4,5,28,43)            0.0            estimate D2E/DX2                !
 ! D46   D(6,5,28,29)           57.6051         estimate D2E/DX2                !
 ! D47   D(6,5,28,42)          -57.6051         estimate D2E/DX2                !
 ! D48   D(6,5,28,43)          180.0            estimate D2E/DX2                !
 ! D49   D(11,7,8,2)             0.0            estimate D2E/DX2                !
 ! D50   D(11,7,8,10)          180.0            estimate D2E/DX2                !
 ! D51   D(12,7,8,2)           180.0            estimate D2E/DX2                !
 ! D52   D(12,7,8,10)            0.0            estimate D2E/DX2                !
 ! D53   D(8,7,11,1)             0.0            estimate D2E/DX2                !
 ! D54   D(12,7,11,1)          180.0            estimate D2E/DX2                !
 ! D55   D(8,7,12,13)         -120.1111         estimate D2E/DX2                !
 ! D56   D(8,7,12,14)           -0.1111         estimate D2E/DX2                !
 ! D57   D(8,7,12,15)          119.8889         estimate D2E/DX2                !
 ! D58   D(11,7,12,13)          59.8889         estimate D2E/DX2                !
 ! D59   D(11,7,12,14)         179.8889         estimate D2E/DX2                !
 ! D60   D(11,7,12,15)         -60.1111         estimate D2E/DX2                !
 ! D61   D(7,12,15,16)          74.0841         estimate D2E/DX2                !
 ! D62   D(7,12,15,17)         -45.9159         estimate D2E/DX2                !
 ! D63   D(7,12,15,18)        -165.9159         estimate D2E/DX2                !
 ! D64   D(13,12,15,16)        -45.9159         estimate D2E/DX2                !
 ! D65   D(13,12,15,17)       -165.9159         estimate D2E/DX2                !
 ! D66   D(13,12,15,18)         74.0841         estimate D2E/DX2                !
 ! D67   D(14,12,15,16)       -165.9159         estimate D2E/DX2                !
 ! D68   D(14,12,15,17)         74.0841         estimate D2E/DX2                !
 ! D69   D(14,12,15,18)        -45.9159         estimate D2E/DX2                !
 ! D70   D(12,15,18,19)        -55.5117         estimate D2E/DX2                !
 ! D71   D(12,15,18,20)         64.4883         estimate D2E/DX2                !
 ! D72   D(12,15,18,24)       -175.5117         estimate D2E/DX2                !
 ! D73   D(16,15,18,19)         64.4883         estimate D2E/DX2                !
 ! D74   D(16,15,18,20)       -175.5117         estimate D2E/DX2                !
 ! D75   D(16,15,18,24)        -55.5117         estimate D2E/DX2                !
 ! D76   D(17,15,18,19)       -175.5117         estimate D2E/DX2                !
 ! D77   D(17,15,18,20)        -55.5117         estimate D2E/DX2                !
 ! D78   D(17,15,18,24)         64.4883         estimate D2E/DX2                !
 ! D79   D(15,18,20,21)        159.8705         estimate D2E/DX2                !
 ! D80   D(15,18,20,22)        -80.1295         estimate D2E/DX2                !
 ! D81   D(15,18,20,23)         39.8705         estimate D2E/DX2                !
 ! D82   D(19,18,20,21)        -80.1295         estimate D2E/DX2                !
 ! D83   D(19,18,20,22)         39.8705         estimate D2E/DX2                !
 ! D84   D(19,18,20,23)        159.8705         estimate D2E/DX2                !
 ! D85   D(24,18,20,21)         39.8705         estimate D2E/DX2                !
 ! D86   D(24,18,20,22)        159.8705         estimate D2E/DX2                !
 ! D87   D(24,18,20,23)        -80.1295         estimate D2E/DX2                !
 ! D88   D(15,18,24,25)         58.8401         estimate D2E/DX2                !
 ! D89   D(15,18,24,26)        178.8401         estimate D2E/DX2                !
 ! D90   D(15,18,24,27)        -61.1599         estimate D2E/DX2                !
 ! D91   D(19,18,24,25)        -61.1599         estimate D2E/DX2                !
 ! D92   D(19,18,24,26)         58.8401         estimate D2E/DX2                !
 ! D93   D(19,18,24,27)        178.8401         estimate D2E/DX2                !
 ! D94   D(20,18,24,25)        178.8401         estimate D2E/DX2                !
 ! D95   D(20,18,24,26)        -61.1599         estimate D2E/DX2                !
 ! D96   D(20,18,24,27)         58.8401         estimate D2E/DX2                !
 ! D97   D(5,28,43,30)           0.0            estimate D2E/DX2                !
 ! D98   D(5,28,43,44)         117.9191         estimate D2E/DX2                !
 ! D99   D(5,28,43,45)        -117.9192         estimate D2E/DX2                !
 ! D100  D(29,28,43,30)        122.3949         estimate D2E/DX2                !
 ! D101  D(29,28,43,44)       -119.686          estimate D2E/DX2                !
 ! D102  D(29,28,43,45)          4.4757         estimate D2E/DX2                !
 ! D103  D(42,28,43,30)       -122.3949         estimate D2E/DX2                !
 ! D104  D(42,28,43,44)         -4.4759         estimate D2E/DX2                !
 ! D105  D(42,28,43,45)        119.6858         estimate D2E/DX2                !
 ! D106  D(43,30,31,4)           0.0            estimate D2E/DX2                !
 ! D107  D(43,30,31,32)        180.0            estimate D2E/DX2                !
 ! D108  D(43,30,31,41)         90.0            estimate D2E/DX2                !
 ! D109  D(52,30,31,4)         122.9248         estimate D2E/DX2                !
 ! D110  D(52,30,31,32)        -57.0752         estimate D2E/DX2                !
 ! D111  D(52,30,31,41)       -147.0752         estimate D2E/DX2                !
 ! D112  D(53,30,31,4)        -122.9248         estimate D2E/DX2                !
 ! D113  D(53,30,31,32)         57.0752         estimate D2E/DX2                !
 ! D114  D(53,30,31,41)        -32.9248         estimate D2E/DX2                !
 ! D115  D(31,30,43,28)          0.0            estimate D2E/DX2                !
 ! D116  D(31,30,43,44)       -124.2145         estimate D2E/DX2                !
 ! D117  D(31,30,43,45)        124.2145         estimate D2E/DX2                !
 ! D118  D(52,30,43,28)       -122.9248         estimate D2E/DX2                !
 ! D119  D(52,30,43,44)        112.8607         estimate D2E/DX2                !
 ! D120  D(52,30,43,45)          1.2896         estimate D2E/DX2                !
 ! D121  D(53,30,43,28)        122.9248         estimate D2E/DX2                !
 ! D122  D(53,30,43,44)         -1.2897         estimate D2E/DX2                !
 ! D123  D(53,30,43,45)       -112.8607         estimate D2E/DX2                !
 ! D124  D(4,31,32,34)        -122.3949         estimate D2E/DX2                !
 ! D125  D(4,31,32,36)           0.0            estimate D2E/DX2                !
 ! D126  D(4,31,32,40)         122.3949         estimate D2E/DX2                !
 ! D127  D(30,31,32,34)         57.6051         estimate D2E/DX2                !
 ! D128  D(30,31,32,36)        180.0            estimate D2E/DX2                !
 ! D129  D(30,31,32,40)        -57.6051         estimate D2E/DX2                !
 ! D130  D(41,31,32,34)        147.6051         estimate D2E/DX2                !
 ! D131  D(41,31,32,36)        -90.0            estimate D2E/DX2                !
 ! D132  D(41,31,32,40)         32.3949         estimate D2E/DX2                !
 ! D133  D(31,32,36,33)          0.0            estimate D2E/DX2                !
 ! D134  D(31,32,36,38)        121.3188         estimate D2E/DX2                !
 ! D135  D(31,32,36,39)       -121.3188         estimate D2E/DX2                !
 ! D136  D(34,32,36,33)        122.3949         estimate D2E/DX2                !
 ! D137  D(34,32,36,38)       -116.2862         estimate D2E/DX2                !
 ! D138  D(34,32,36,39)          1.0761         estimate D2E/DX2                !
 ! D139  D(40,32,36,33)       -122.3949         estimate D2E/DX2                !
 ! D140  D(40,32,36,38)         -1.0761         estimate D2E/DX2                !
 ! D141  D(40,32,36,39)        116.2862         estimate D2E/DX2                !
 ! D142  D(3,33,36,32)           0.0            estimate D2E/DX2                !
 ! D143  D(3,33,36,38)        -121.3188         estimate D2E/DX2                !
 ! D144  D(3,33,36,39)         121.3188         estimate D2E/DX2                !
 ! D145  D(35,33,36,32)        122.7903         estimate D2E/DX2                !
 ! D146  D(35,33,36,38)          1.4715         estimate D2E/DX2                !
 ! D147  D(35,33,36,39)       -115.8908         estimate D2E/DX2                !
 ! D148  D(37,33,36,32)       -122.7903         estimate D2E/DX2                !
 ! D149  D(37,33,36,38)        115.8908         estimate D2E/DX2                !
 ! D150  D(37,33,36,39)         -1.4715         estimate D2E/DX2                !
 ! D151  D(28,43,45,46)        -57.305          estimate D2E/DX2                !
 ! D152  D(28,43,45,47)         62.6949         estimate D2E/DX2                !
 ! D153  D(28,43,45,48)       -177.3051         estimate D2E/DX2                !
 ! D154  D(30,43,45,46)        171.6166         estimate D2E/DX2                !
 ! D155  D(30,43,45,47)        -68.3834         estimate D2E/DX2                !
 ! D156  D(30,43,45,48)         51.6166         estimate D2E/DX2                !
 ! D157  D(44,43,45,46)         68.5023         estimate D2E/DX2                !
 ! D158  D(44,43,45,47)       -171.4978         estimate D2E/DX2                !
 ! D159  D(44,43,45,48)        -51.4978         estimate D2E/DX2                !
 ! D160  D(43,45,48,49)        149.7387         estimate D2E/DX2                !
 ! D161  D(43,45,48,50)        -90.2613         estimate D2E/DX2                !
 ! D162  D(43,45,48,51)         29.7387         estimate D2E/DX2                !
 ! D163  D(46,45,48,49)         29.7387         estimate D2E/DX2                !
 ! D164  D(46,45,48,50)        149.7387         estimate D2E/DX2                !
 ! D165  D(46,45,48,51)        -90.2613         estimate D2E/DX2                !
 ! D166  D(47,45,48,49)        -90.2613         estimate D2E/DX2                !
 ! D167  D(47,45,48,50)         29.7387         estimate D2E/DX2                !
 ! D168  D(47,45,48,51)        149.7387         estimate D2E/DX2                !
 --------------------------------------------------------------------------------
 Trust Radius=3.00D-01 FncErr=1.00D-07 GrdErr=1.00D-06 EigMax=2.50D+02 EigMin=1.00D-04
 Number of steps in this run=    318 maximum allowed number of steps=    318.
 GradGradGradGradGradGradGradGradGradGradGradGradGradGradGradGradGradGrad

 Leave Link  103 at Wed Nov  8 22:31:31 2023, MaxMem=  5368709120 cpu:               0.3 elap:               0.0
 (Enter /home/Data/zhangqian/application/g16/l202.exe)
 Stoichiometry    C22H30S
 Framework group  C1[X(C22H30S)]
 Deg. of freedom   153
 Full point group                 C1      NOp   1
 Largest Abelian subgroup         C1      NOp   1
 Largest concise Abelian subgroup C1      NOp   1
                         Standard orientation:                         
 ---------------------------------------------------------------------
 Center     Atomic      Atomic             Coordinates (Angstroms)
 Number     Number       Type             X           Y           Z
 ---------------------------------------------------------------------
      1          6           0        0.568287   -0.908224   -0.607227
      2          6           0        0.449952    0.560802   -0.424476
      3          6           0       -0.853810    1.129095   -0.235793
      4          6           0       -1.943669    0.322412   -0.227834
      5          6           0       -1.828661   -1.105297   -0.405445
      6          6           0       -0.625629   -1.703556   -0.588182
      7          6           0        2.713501    0.026668   -0.699186
      8          6           0        1.696507    1.115414   -0.476586
      9          1           0       -0.530490   -2.790570   -0.724120
     10          1           0        1.974693    2.162130   -0.380370
     11         16           0        1.885423   -1.229796   -0.768336
     12          6           0        4.241944    0.165604   -0.826305
     13          1           0        4.555316   -0.202002   -1.781063
     14          1           0        4.515367    1.195911   -0.733538
     15          6           0        4.925837   -0.649255    0.287201
     16          1           0        4.858623   -1.692349    0.058427
     17          1           0        4.439028   -0.456689    1.220386
     18          6           0        6.407109   -0.239990    0.386880
     19          1           0        6.875045   -0.358967   -0.567992
     20          6           0        6.504307    1.232805    0.826227
     21          1           0        7.477136    1.421087    1.230027
     22          1           0        6.339581    1.868601   -0.018480
     23          1           0        5.763738    1.432033    1.572395
     24          6           0        7.117705   -1.132283    1.421514
     25          1           0        7.032721   -2.157355    1.126715
     26          1           0        8.151402   -0.861375    1.476079
     27          1           0        6.662716   -0.998090    2.380616
     28          6           0       -3.129344   -1.929411   -0.379749
     29          1           0       -3.027557   -2.656647    0.398497
     30          6           0       -4.578569   -0.038257   -0.022850
     31          6           0       -3.357248    0.899800   -0.027788
     32          6           0       -3.549505    2.415243    0.167319
     33          6           0       -0.965986    2.653377   -0.047163
     34          1           0       -4.049910    2.552597    1.103070
     35          1           0       -0.517250    3.104076   -0.907632
     36          6           0       -2.328184    3.353300    0.162381
     37          1           0       -0.357447    2.904987    0.796206
     38          1           0       -2.460081    4.072585   -0.618729
     39          1           0       -2.299089    3.872014    1.097790
     40          1           0       -4.210029    2.752080   -0.604140
     41          1           0       -3.456495    1.023446   -1.085976
     42          1           0       -3.187676   -2.457164   -1.308713
     43          6           0       -4.482939   -1.225415   -0.170536
     44          1           0       -5.140066   -1.345722   -1.006365
     45          6           0       -5.195448   -1.689178    1.113542
     46          1           0       -5.334223   -2.749650    1.081285
     47          1           0       -4.599402   -1.433190    1.964482
     48          6           0       -6.566085   -0.995086    1.219326
     49          1           0       -7.250736   -1.634526    1.736307
     50          1           0       -6.460091   -0.076485    1.757692
     51          1           0       -6.939752   -0.791987    0.237479
     52          1           0       -5.076290    0.113786    0.912060
     53          1           0       -5.235986    0.312743   -0.790641
 ---------------------------------------------------------------------
 Rotational constants (GHZ):           0.5766996           0.0969519           0.0876317
 Leave Link  202 at Wed Nov  8 22:31:31 2023, MaxMem=  5368709120 cpu:               0.0 elap:               0.0
 (Enter /home/Data/zhangqian/application/g16/l301.exe)
 Standard basis: 6-31G(d) (6D, 7F)
 Ernie: Thresh=  0.10000D-02 Tol=  0.10000D-05 Strict=F.
 There are   409 symmetry adapted cartesian basis functions of A   symmetry.
 There are   409 symmetry adapted basis functions of A   symmetry.
   409 basis functions,   788 primitive gaussians,   409 cartesian basis functions
    89 alpha electrons       89 beta electrons
       nuclear repulsion energy      2065.6847144710 Hartrees.
 IExCor=  402 DFT=T Ex+Corr=B3LYP ExCW=0 ScaHFX=  0.200000
 ScaDFX=  0.800000  0.720000  1.000000  0.810000 ScalE2=  1.000000  1.000000
 IRadAn=      5 IRanWt=     -1 IRanGd=            0 ICorTp=0 IEmpDi=131
 NAtoms=   53 NActive=   53 NUniq=   53 SFac= 1.00D+00 NAtFMM=   60 NAOKFM=F Big=F
 Integral buffers will be    131072 words long.
 Raffenetti 2 integral format.
 Two-electron integral symmetry is turned on.
 R6Disp:  Grimme-D3 Dispersion energy=       -0.0535370006 Hartrees.
 Nuclear repulsion after empirical dispersion term =     2065.6311774704 Hartrees.
 ------------------------------------------------------------------------------
 Polarizable Continuum Model (PCM)
 =================================
 Model                : PCM.
 Atomic radii         : UFF (Universal Force Field).
 Polarization charges : Total charges.
 Charge compensation  : None.
 Solution method      : On-the-fly selection.
 Cavity type          : Scaled VdW (van der Waals Surface) (Alpha=1.100).
 Cavity algorithm     : GePol (No added spheres)
                        Default sphere list used, NSphG=   53.
                        Lebedev-Laikov grids with approx.  5.0 points / Ang**2.
                        Smoothing algorithm: York/Karplus (Gamma=1.0000).
                        Polarization charges: spherical gaussians, with
                                              point-specific exponents (IZeta= 3).
                        Self-potential: point-specific (ISelfS= 7).
                        Self-field    : sphere-specific E.n sum rule (ISelfD= 2).
 1st derivatives      : Analytical E(r).r(x)/FMM algorithm (CHGder, D1EAlg=3).
                        Cavity 1st derivative terms included.
 Solvent              : Water, Eps=  78.355300 Eps(inf)=   1.777849
 ------------------------------------------------------------------------------
 GePol: Number of generator spheres                  =      53
 GePol: Total number of spheres                      =      53
 GePol: Number of exposed spheres                    =      53 (100.00%)
 GePol: Number of points                             =    3363
 GePol: Average weight of points                     =       0.13
 GePol: Minimum weight of points                     =   0.15D-11
 GePol: Maximum weight of points                     =    0.20577
 GePol: Number of points with low weight             =     217
 GePol: Fraction of low-weight points (<1% of avg)   =       6.45%
 GePol: Cavity surface area                          =    434.423 Ang**2
 GePol: Cavity volume                                =    482.845 Ang**3
 Leave Link  301 at Wed Nov  8 22:31:31 2023, MaxMem=  5368709120 cpu:               1.4 elap:               0.1
 (Enter /home/Data/zhangqian/application/g16/l302.exe)
 NPDir=0 NMtPBC=     1 NCelOv=     1 NCel=       1 NClECP=     1 NCelD=      1
         NCelK=      1 NCelE2=     1 NClLst=     1 CellRange=     0.0.
 One-electron integrals computed using PRISM.
 One-electron integral symmetry used in STVInt
 NBasis=   409 RedAO= T EigKep=  2.49D-04  NBF=   409
 NBsUse=   409 1.00D-06 EigRej= -1.00D+00 NBFU=   409
 Precomputing XC quadrature grid using
 IXCGrd= 4 IRadAn=           5 IRanWt=          -1 IRanGd=           0 AccXCQ= 0.00D+00.
 Generated NRdTot=       0 NPtTot=           0 NUsed=           0 NTot=          32
 NSgBfM=   399   399   399   399   399 MxSgAt=    53 MxSgA2=    53.
 Leave Link  302 at Wed Nov  8 22:31:32 2023, MaxMem=  5368709120 cpu:              10.3 elap:               0.4
 (Enter /home/Data/zhangqian/application/g16/l303.exe)
 DipDrv:  MaxL=1.
 Leave Link  303 at Wed Nov  8 22:31:32 2023, MaxMem=  5368709120 cpu:               1.3 elap:               0.1
 (Enter /home/Data/zhangqian/application/g16/l401.exe)
 ExpMin= 1.17D-01 ExpMax= 2.19D+04 ExpMxC= 3.30D+03 IAcc=3 IRadAn=         5 AccDes= 0.00D+00
 Harris functional with IExCor=  402 and IRadAn=       5 diagonalized for initial guess.
 HarFok:  IExCor=  402 AccDes= 0.00D+00 IRadAn=         5 IDoV= 1 UseB2=F ITyADJ=14
 ICtDFT=  3500011 ScaDFX=  1.000000  1.000000  1.000000  1.000000
 FoFCou: FMM=F IPFlag=           0 FMFlag=      100000 FMFlg1=           0
         NFxFlg=           0 DoJE=T BraDBF=F KetDBF=T FulRan=T
         wScrn=  0.000000 ICntrl=       500 IOpCl=  0 I1Cent=   200000004 NGrid=           0
         NMat0=    1 NMatS0=      1 NMatT0=    0 NMatD0=    1 NMtDS0=    0 NMtDT0=    0
 Petite list used in FoFCou.
 Harris En= -1254.41094846180    
 JPrj=0 DoOrth=F DoCkMO=F.
 Leave Link  401 at Wed Nov  8 22:31:33 2023, MaxMem=  5368709120 cpu:              26.9 elap:               1.1
 (Enter /home/Data/zhangqian/application/g16/l502.exe)
 Integral symmetry usage will be decided dynamically.
 Closed shell SCF:
 Using DIIS extrapolation, IDIIS=  1040.
 NGot=  5368709120 LenX=  5368359911 LenY=  5368192189
 Requested convergence on RMS density matrix=1.00D-08 within 128 cycles.
 Requested convergence on MAX density matrix=1.00D-06.
 Requested convergence on             energy=1.00D-06.
 No special actions if energy rises.
 Fock matrices will be formed incrementally for  20 cycles.

 Cycle   1  Pass 1  IDiag  1:
 FoFJK:  IHMeth= 1 ICntrl=       0 DoSepK=F KAlg= 0 I1Cent=           0 FoldK=F
 IRaf= 680000000 NMat=       1 IRICut=       1 DoRegI=T DoRafI=F ISym2E= 0 IDoP0=0 IntGTp=1.
 FoFCou: FMM=F IPFlag=           0 FMFlag=      100000 FMFlg1=           0
         NFxFlg=           0 DoJE=F BraDBF=F KetDBF=F FulRan=T
         wScrn=  0.000000 ICntrl=         0 IOpCl=  0 I1Cent=           0 NGrid=           0
         NMat0=    1 NMatS0=      1 NMatT0=    0 NMatD0=    1 NMtDS0=    0 NMtDT0=    0
 Symmetry not used in FoFCou.
 Inv3:  Mode=1 IEnd=    33929307.
 Iteration    1 A*A^-1 deviation from unit magnitude is 3.66D-15 for   2878.
 Iteration    1 A*A^-1 deviation from orthogonality  is 3.09D-15 for   2878   2720.
 Iteration    1 A^-1*A deviation from unit magnitude is 3.77D-15 for   1776.
 Iteration    1 A^-1*A deviation from orthogonality  is 5.81D-13 for   2886   2878.
 E= -1253.44851317157    
 DIIS: error= 3.58D-02 at cycle   1 NSaved=   1.
 NSaved= 1 IEnMin= 1 EnMin= -1253.44851317157     IErMin= 1 ErrMin= 3.58D-02
 ErrMax= 3.58D-02  0.00D+00 EMaxC= 1.00D-01 BMatC= 7.43D-01 BMatP= 7.43D-01
 IDIUse=3 WtCom= 6.42D-01 WtEn= 3.58D-01
 Coeff-Com:  0.100D+01
 Coeff-En:   0.100D+01
 Coeff:      0.100D+01
 Gap=     0.188 Goal=   None    Shift=    0.000
 GapD=    0.188 DampG=1.000 DampE=0.500 DampFc=0.5000 IDamp=-1.
 Damping current iteration by 5.00D-01
 RMSDP=5.62D-03 MaxDP=2.29D-01              OVMax= 2.18D-01

 Cycle   2  Pass 1  IDiag  1:
 RMSU=  2.76D-03    CP:  9.69D-01
 E= -1253.81814558070     Delta-E=       -0.369632409136 Rises=F Damp=T
 DIIS: error= 6.47D-03 at cycle   2 NSaved=   2.
 NSaved= 2 IEnMin= 2 EnMin= -1253.81814558070     IErMin= 2 ErrMin= 6.47D-03
 ErrMax= 6.47D-03  0.00D+00 EMaxC= 1.00D-01 BMatC= 3.33D-02 BMatP= 7.43D-01
 IDIUse=3 WtCom= 9.35D-01 WtEn= 6.47D-02
 Coeff-Com:  0.399D-01 0.960D+00
 Coeff-En:   0.727D-01 0.927D+00
 Coeff:      0.420D-01 0.958D+00
 Gap=     0.223 Goal=   None    Shift=    0.000
 RMSDP=1.60D-03 MaxDP=6.38D-02 DE=-3.70D-01 OVMax= 1.41D-01

 Cycle   3  Pass 1  IDiag  1:
 RMSU=  1.50D-03    CP:  9.53D-01  8.29D-01
 E= -1254.24008832840     Delta-E=       -0.421942747693 Rises=F Damp=F
 DIIS: error= 3.02D-03 at cycle   3 NSaved=   3.
 NSaved= 3 IEnMin= 3 EnMin= -1254.24008832840     IErMin= 3 ErrMin= 3.02D-03
 ErrMax= 3.02D-03  0.00D+00 EMaxC= 1.00D-01 BMatC= 1.26D-02 BMatP= 3.33D-02
 IDIUse=3 WtCom= 9.70D-01 WtEn= 3.02D-02
 Coeff-Com: -0.173D-01 0.350D+00 0.668D+00
 Coeff-En:   0.000D+00 0.000D+00 0.100D+01
 Coeff:     -0.168D-01 0.339D+00 0.678D+00
 Gap=     0.171 Goal=   None    Shift=    0.000
 RMSDP=5.43D-04 MaxDP=2.74D-02 DE=-4.22D-01 OVMax= 5.02D-02

 Cycle   4  Pass 1  IDiag  1:
 RMSU=  4.06D-04    CP:  9.55D-01  8.92D-01  7.90D-01
 E= -1254.24818244085     Delta-E=       -0.008094112455 Rises=F Damp=F
 DIIS: error= 2.74D-03 at cycle   4 NSaved=   4.
 NSaved= 4 IEnMin= 4 EnMin= -1254.24818244085     IErMin= 4 ErrMin= 2.74D-03
 ErrMax= 2.74D-03  0.00D+00 EMaxC= 1.00D-01 BMatC= 4.75D-03 BMatP= 1.26D-02
 IDIUse=3 WtCom= 9.73D-01 WtEn= 2.74D-02
 Coeff-Com: -0.134D-01 0.886D-01 0.396D+00 0.529D+00
 Coeff-En:   0.000D+00 0.000D+00 0.281D+00 0.719D+00
 Coeff:     -0.131D-01 0.861D-01 0.393D+00 0.534D+00
 Gap=     0.174 Goal=   None    Shift=    0.000
 RMSDP=2.20D-04 MaxDP=1.70D-02 DE=-8.09D-03 OVMax= 2.81D-02

 Cycle   5  Pass 1  IDiag  1:
 RMSU=  1.22D-04    CP:  9.54D-01  8.80D-01  8.36D-01  5.90D-01
 E= -1254.25269070265     Delta-E=       -0.004508261802 Rises=F Damp=F
 DIIS: error= 9.25D-04 at cycle   5 NSaved=   5.
 NSaved= 5 IEnMin= 5 EnMin= -1254.25269070265     IErMin= 5 ErrMin= 9.25D-04
 ErrMax= 9.25D-04  0.00D+00 EMaxC= 1.00D-01 BMatC= 3.65D-04 BMatP= 4.75D-03
 IDIUse=3 WtCom= 9.91D-01 WtEn= 9.25D-03
 Coeff-Com: -0.526D-02 0.187D-01 0.158D+00 0.293D+00 0.536D+00
 Coeff-En:   0.000D+00 0.000D+00 0.000D+00 0.000D+00 0.100D+01
 Coeff:     -0.521D-02 0.185D-01 0.156D+00 0.290D+00 0.540D+00
 Gap=     0.173 Goal=   None    Shift=    0.000
 RMSDP=6.95D-05 MaxDP=4.32D-03 DE=-4.51D-03 OVMax= 8.03D-03

 Cycle   6  Pass 1  IDiag  1:
 RMSU=  4.35D-05    CP:  9.54D-01  8.80D-01  8.39D-01  6.26D-01  5.75D-01
 E= -1254.25303615403     Delta-E=       -0.000345451374 Rises=F Damp=F
 DIIS: error= 2.38D-04 at cycle   6 NSaved=   6.
 NSaved= 6 IEnMin= 6 EnMin= -1254.25303615403     IErMin= 6 ErrMin= 2.38D-04
 ErrMax= 2.38D-04  0.00D+00 EMaxC= 1.00D-01 BMatC= 3.78D-05 BMatP= 3.65D-04
 IDIUse=3 WtCom= 9.98D-01 WtEn= 2.38D-03
 Coeff-Com: -0.165D-02 0.222D-02 0.519D-01 0.116D+00 0.312D+00 0.520D+00
 Coeff-En:   0.000D+00 0.000D+00 0.000D+00 0.000D+00 0.460D-01 0.954D+00
 Coeff:     -0.164D-02 0.221D-02 0.518D-01 0.115D+00 0.311D+00 0.521D+00
 Gap=     0.173 Goal=   None    Shift=    0.000
 RMSDP=2.11D-05 MaxDP=9.85D-04 DE=-3.45D-04 OVMax= 1.88D-03

 Cycle   7  Pass 1  IDiag  1:
 RMSU=  8.97D-06    CP:  9.54D-01  8.80D-01  8.42D-01  6.26D-01  6.26D-01
                    CP:  5.97D-01
 E= -1254.25307464944     Delta-E=       -0.000038495411 Rises=F Damp=F
 DIIS: error= 3.17D-05 at cycle   7 NSaved=   7.
 NSaved= 7 IEnMin= 7 EnMin= -1254.25307464944     IErMin= 7 ErrMin= 3.17D-05
 ErrMax= 3.17D-05  0.00D+00 EMaxC= 1.00D-01 BMatC= 1.10D-06 BMatP= 3.78D-05
 IDIUse=1 WtCom= 1.00D+00 WtEn= 0.00D+00
 Coeff-Com: -0.482D-03 0.661D-04 0.160D-01 0.388D-01 0.117D+00 0.238D+00
 Coeff-Com:  0.590D+00
 Coeff:     -0.482D-03 0.661D-04 0.160D-01 0.388D-01 0.117D+00 0.238D+00
 Coeff:      0.590D+00
 Gap=     0.173 Goal=   None    Shift=    0.000
 RMSDP=4.19D-06 MaxDP=2.57D-04 DE=-3.85D-05 OVMax= 2.78D-04

 Cycle   8  Pass 1  IDiag  1:
 RMSU=  2.90D-06    CP:  9.54D-01  8.80D-01  8.42D-01  6.28D-01  6.28D-01
                    CP:  6.19D-01  7.00D-01
 E= -1254.25307562051     Delta-E=       -0.000000971068 Rises=F Damp=F
 DIIS: error= 1.16D-05 at cycle   8 NSaved=   8.
 NSaved= 8 IEnMin= 8 EnMin= -1254.25307562051     IErMin= 8 ErrMin= 1.16D-05
 ErrMax= 1.16D-05  0.00D+00 EMaxC= 1.00D-01 BMatC= 1.39D-07 BMatP= 1.10D-06
 IDIUse=1 WtCom= 1.00D+00 WtEn= 0.00D+00
 Coeff-Com: -0.704D-04-0.195D-03 0.274D-02 0.770D-02 0.269D-01 0.652D-01
 Coeff-Com:  0.300D+00 0.598D+00
 Coeff:     -0.704D-04-0.195D-03 0.274D-02 0.770D-02 0.269D-01 0.652D-01
 Coeff:      0.300D+00 0.598D+00
 Gap=     0.173 Goal=   None    Shift=    0.000
 RMSDP=1.49D-06 MaxDP=8.27D-05 DE=-9.71D-07 OVMax= 1.19D-04

 Cycle   9  Pass 1  IDiag  1:
 RMSU=  1.12D-06    CP:  9.54D-01  8.80D-01  8.42D-01  6.28D-01  6.30D-01
                    CP:  6.21D-01  7.41D-01  7.06D-01
 E= -1254.25307574452     Delta-E=       -0.000000124016 Rises=F Damp=F
 DIIS: error= 5.09D-06 at cycle   9 NSaved=   9.
 NSaved= 9 IEnMin= 9 EnMin= -1254.25307574452     IErMin= 9 ErrMin= 5.09D-06
 ErrMax= 5.09D-06  0.00D+00 EMaxC= 1.00D-01 BMatC= 1.94D-08 BMatP= 1.39D-07
 IDIUse=1 WtCom= 1.00D+00 WtEn= 0.00D+00
 Coeff-Com:  0.183D-04-0.127D-03-0.420D-03-0.366D-03 0.987D-03 0.772D-02
 Coeff-Com:  0.938D-01 0.332D+00 0.566D+00
 Coeff:      0.183D-04-0.127D-03-0.420D-03-0.366D-03 0.987D-03 0.772D-02
 Coeff:      0.938D-01 0.332D+00 0.566D+00
 Gap=     0.173 Goal=   None    Shift=    0.000
 RMSDP=5.09D-07 MaxDP=3.94D-05 DE=-1.24D-07 OVMax= 4.45D-05

 Cycle  10  Pass 1  IDiag  1:
 RMSU=  2.54D-07    CP:  9.54D-01  8.80D-01  8.42D-01  6.28D-01  6.30D-01
                    CP:  6.22D-01  7.53D-01  7.66D-01  6.73D-01
 E= -1254.25307576384     Delta-E=       -0.000000019320 Rises=F Damp=F
 DIIS: error= 1.12D-06 at cycle  10 NSaved=  10.
 NSaved=10 IEnMin=10 EnMin= -1254.25307576384     IErMin=10 ErrMin= 1.12D-06
 ErrMax= 1.12D-06  0.00D+00 EMaxC= 1.00D-01 BMatC= 1.29D-09 BMatP= 1.94D-08
 IDIUse=1 WtCom= 1.00D+00 WtEn= 0.00D+00
 Coeff-Com:  0.137D-04-0.445D-04-0.415D-03-0.750D-03-0.157D-02-0.103D-02
 Coeff-Com:  0.240D-01 0.122D+00 0.279D+00 0.579D+00
 Coeff:      0.137D-04-0.445D-04-0.415D-03-0.750D-03-0.157D-02-0.103D-02
 Coeff:      0.240D-01 0.122D+00 0.279D+00 0.579D+00
 Gap=     0.173 Goal=   None    Shift=    0.000
 RMSDP=1.33D-07 MaxDP=8.13D-06 DE=-1.93D-08 OVMax= 1.52D-05

 Cycle  11  Pass 1  IDiag  1:
 RMSU=  9.84D-08    CP:  9.54D-01  8.80D-01  8.42D-01  6.28D-01  6.30D-01
                    CP:  6.22D-01  7.54D-01  7.69D-01  6.99D-01  6.79D-01
 E= -1254.25307576500     Delta-E=       -0.000000001158 Rises=F Damp=F
 DIIS: error= 4.58D-07 at cycle  11 NSaved=  11.
 NSaved=11 IEnMin=11 EnMin= -1254.25307576500     IErMin=11 ErrMin= 4.58D-07
 ErrMax= 4.58D-07  0.00D+00 EMaxC= 1.00D-01 BMatC= 2.18D-10 BMatP= 1.29D-09
 IDIUse=1 WtCom= 1.00D+00 WtEn= 0.00D+00
 Coeff-Com:  0.503D-05-0.902D-05-0.184D-03-0.371D-03-0.101D-02-0.142D-02
 Coeff-Com:  0.258D-02 0.307D-01 0.903D-01 0.335D+00 0.544D+00
 Coeff:      0.503D-05-0.902D-05-0.184D-03-0.371D-03-0.101D-02-0.142D-02
 Coeff:      0.258D-02 0.307D-01 0.903D-01 0.335D+00 0.544D+00
 Gap=     0.173 Goal=   None    Shift=    0.000
 RMSDP=5.14D-08 MaxDP=2.23D-06 DE=-1.16D-09 OVMax= 5.03D-06

 Cycle  12  Pass 1  IDiag  1:
 RMSU=  2.42D-08    CP:  9.54D-01  8.80D-01  8.42D-01  6.28D-01  6.30D-01
                    CP:  6.22D-01  7.54D-01  7.73D-01  7.07D-01  7.46D-01
                    CP:  6.22D-01
 E= -1254.25307576523     Delta-E=       -0.000000000234 Rises=F Damp=F
 DIIS: error= 7.75D-08 at cycle  12 NSaved=  12.
 NSaved=12 IEnMin=12 EnMin= -1254.25307576523     IErMin=12 ErrMin= 7.75D-08
 ErrMax= 7.75D-08  0.00D+00 EMaxC= 1.00D-01 BMatC= 8.65D-12 BMatP= 2.18D-10
 IDIUse=1 WtCom= 1.00D+00 WtEn= 0.00D+00
 Coeff-Com:  0.985D-06-0.548D-06-0.472D-04-0.975D-04-0.311D-03-0.500D-03
 Coeff-Com: -0.682D-03 0.434D-02 0.178D-01 0.108D+00 0.235D+00 0.637D+00
 Coeff:      0.985D-06-0.548D-06-0.472D-04-0.975D-04-0.311D-03-0.500D-03
 Coeff:     -0.682D-03 0.434D-02 0.178D-01 0.108D+00 0.235D+00 0.637D+00
 Gap=     0.173 Goal=   None    Shift=    0.000
 RMSDP=1.15D-08 MaxDP=5.89D-07 DE=-2.34D-10 OVMax= 1.36D-06

 Cycle  13  Pass 1  IDiag  1:
 RMSU=  8.26D-09    CP:  9.54D-01  8.80D-01  8.42D-01  6.28D-01  6.30D-01
                    CP:  6.22D-01  7.54D-01  7.73D-01  7.07D-01  7.50D-01
                    CP:  6.57D-01  7.72D-01
 E= -1254.25307576522     Delta-E=        0.000000000014 Rises=F Damp=F
 DIIS: error= 2.36D-08 at cycle  13 NSaved=  13.
 NSaved=13 IEnMin=12 EnMin= -1254.25307576523     IErMin=13 ErrMin= 2.36D-08
 ErrMax= 2.36D-08  0.00D+00 EMaxC= 1.00D-01 BMatC= 1.44D-12 BMatP= 8.65D-12
 IDIUse=1 WtCom= 1.00D+00 WtEn= 0.00D+00
 Coeff-Com: -0.932D-07 0.847D-06-0.204D-05-0.481D-05-0.389D-04-0.766D-04
 Coeff-Com: -0.662D-03-0.165D-02-0.284D-02 0.116D-01 0.449D-01 0.328D+00
 Coeff-Com:  0.621D+00
 Coeff:     -0.932D-07 0.847D-06-0.204D-05-0.481D-05-0.389D-04-0.766D-04
 Coeff:     -0.662D-03-0.165D-02-0.284D-02 0.116D-01 0.449D-01 0.328D+00
 Coeff:      0.621D+00
 Gap=     0.173 Goal=   None    Shift=    0.000
 RMSDP=3.73D-09 MaxDP=2.02D-07 DE= 1.36D-11 OVMax= 3.24D-07

 Error on total polarization charges =  0.01461
 SCF Done:  E(RB3LYP) =  -1254.25307577     A.U. after   13 cycles
            NFock= 13  Conv=0.37D-08     -V/T= 2.0046
 KE= 1.248545822951D+03 PE=-7.060849472909D+03 EE= 2.492419396722D+03
 Leave Link  502 at Wed Nov  8 22:32:08 2023, MaxMem=  5368709120 cpu:             805.0 elap:              34.7
 (Enter /home/Data/zhangqian/application/g16/l601.exe)
 Copying SCF densities to generalized density rwf, IOpCl= 0 IROHF=0.

 **********************************************************************

            Population analysis using the SCF density.

 **********************************************************************

 Orbital symmetries:
       Occupied  (A) (A) (A) (A) (A) (A) (A) (A) (A) (A) (A) (A)
                 (A) (A) (A) (A) (A) (A) (A) (A) (A) (A) (A) (A)
                 (A) (A) (A) (A) (A) (A) (A) (A) (A) (A) (A) (A)
                 (A) (A) (A) (A) (A) (A) (A) (A) (A) (A) (A) (A)
                 (A) (A) (A) (A) (A) (A) (A) (A) (A) (A) (A) (A)
                 (A) (A) (A) (A) (A) (A) (A) (A) (A) (A) (A) (A)
                 (A) (A) (A) (A) (A) (A) (A) (A) (A) (A) (A) (A)
                 (A) (A) (A) (A) (A)
       Virtual   (A) (A) (A) (A) (A) (A) (A) (A) (A) (A) (A) (A)
                 (A) (A) (A) (A) (A) (A) (A) (A) (A) (A) (A) (A)
                 (A) (A) (A) (A) (A) (A) (A) (A) (A) (A) (A) (A)
                 (A) (A) (A) (A) (A) (A) (A) (A) (A) (A) (A) (A)
                 (A) (A) (A) (A) (A) (A) (A) (A) (A) (A) (A) (A)
                 (A) (A) (A) (A) (A) (A) (A) (A) (A) (A) (A) (A)
                 (A) (A) (A) (A) (A) (A) (A) (A) (A) (A) (A) (A)
                 (A) (A) (A) (A) (A) (A) (A) (A) (A) (A) (A) (A)
                 (A) (A) (A) (A) (A) (A) (A) (A) (A) (A) (A) (A)
                 (A) (A) (A) (A) (A) (A) (A) (A) (A) (A) (A) (A)
                 (A) (A) (A) (A) (A) (A) (A) (A) (A) (A) (A) (A)
                 (A) (A) (A) (A) (A) (A) (A) (A) (A) (A) (A) (A)
                 (A) (A) (A) (A) (A) (A) (A) (A) (A) (A) (A) (A)
                 (A) (A) (A) (A) (A) (A) (A) (A) (A) (A) (A) (A)
                 (A) (A) (A) (A) (A) (A) (A) (A) (A) (A) (A) (A)
                 (A) (A) (A) (A) (A) (A) (A) (A) (A) (A) (A) (A)
                 (A) (A) (A) (A) (A) (A) (A) (A) (A) (A) (A) (A)
                 (A) (A) (A) (A) (A) (A) (A) (A) (A) (A) (A) (A)
                 (A) (A) (A) (A) (A) (A) (A) (A) (A) (A) (A) (A)
                 (A) (A) (A) (A) (A) (A) (A) (A) (A) (A) (A) (A)
                 (A) (A) (A) (A) (A) (A) (A) (A) (A) (A) (A) (A)
                 (A) (A) (A) (A) (A) (A) (A) (A) (A) (A) (A) (A)
                 (A) (A) (A) (A) (A) (A) (A) (A) (A) (A) (A) (A)
                 (A) (A) (A) (A) (A) (A) (A) (A) (A) (A) (A) (A)
                 (A) (A) (A) (A) (A) (A) (A) (A) (A) (A) (A) (A)
                 (A) (A) (A) (A) (A) (A) (A) (A) (A) (A) (A) (A)
                 (A) (A) (A) (A) (A) (A) (A) (A)
 The electronic state is 1-A.
 Alpha  occ. eigenvalues --  -88.88056 -10.19547 -10.18811 -10.18595 -10.18512
 Alpha  occ. eigenvalues --  -10.18434 -10.18383 -10.17986 -10.17981 -10.17878
 Alpha  occ. eigenvalues --  -10.17677 -10.17297 -10.17269 -10.17214 -10.17178
 Alpha  occ. eigenvalues --  -10.17066 -10.16970 -10.16891 -10.16301 -10.15914
 Alpha  occ. eigenvalues --  -10.15867 -10.15170 -10.13966  -7.96191  -5.92449
 Alpha  occ. eigenvalues --   -5.91932  -5.91876  -0.95988  -0.89350  -0.84107
 Alpha  occ. eigenvalues --   -0.81573  -0.80077  -0.77557  -0.76771  -0.74784
 Alpha  occ. eigenvalues --   -0.73237  -0.71798  -0.71098  -0.68245  -0.67396
 Alpha  occ. eigenvalues --   -0.64202  -0.62916  -0.61625  -0.60821  -0.57310
 Alpha  occ. eigenvalues --   -0.56025  -0.55304  -0.53966  -0.51924  -0.50713
 Alpha  occ. eigenvalues --   -0.49651  -0.47339  -0.47316  -0.46002  -0.44901
 Alpha  occ. eigenvalues --   -0.44727  -0.43963  -0.43745  -0.43279  -0.42553
 Alpha  occ. eigenvalues --   -0.42041  -0.41495  -0.40622  -0.40052  -0.39397
 Alpha  occ. eigenvalues --   -0.38843  -0.38499  -0.38187  -0.37580  -0.37242
 Alpha  occ. eigenvalues --   -0.36629  -0.35944  -0.35728  -0.35242  -0.34268
 Alpha  occ. eigenvalues --   -0.33740  -0.32601  -0.31773  -0.31471  -0.31434
 Alpha  occ. eigenvalues --   -0.31007  -0.30322  -0.28777  -0.28546  -0.27856
 Alpha  occ. eigenvalues --   -0.27363  -0.24853  -0.20309  -0.18681
 Alpha virt. eigenvalues --   -0.01343   0.03088   0.05883   0.06153   0.08856
 Alpha virt. eigenvalues --    0.09276   0.10119   0.10892   0.11428   0.11777
 Alpha virt. eigenvalues --    0.12148   0.12732   0.13033   0.13249   0.13650
 Alpha virt. eigenvalues --    0.13968   0.14776   0.15153   0.15409   0.16142
 Alpha virt. eigenvalues --    0.16602   0.17293   0.17871   0.17956   0.18275
 Alpha virt. eigenvalues --    0.18402   0.18662   0.19778   0.20054   0.20258
 Alpha virt. eigenvalues --    0.20619   0.21013   0.21447   0.22164   0.22587
 Alpha virt. eigenvalues --    0.23086   0.23361   0.23500   0.24486   0.24717
 Alpha virt. eigenvalues --    0.25343   0.25862   0.25998   0.27189   0.27396
 Alpha virt. eigenvalues --    0.27678   0.28091   0.28951   0.29468   0.30813
 Alpha virt. eigenvalues --    0.31662   0.34101   0.35470   0.36984   0.37249
 Alpha virt. eigenvalues --    0.39605   0.41396   0.43359   0.43660   0.45890
 Alpha virt. eigenvalues --    0.47625   0.48780   0.49559   0.50236   0.50433
 Alpha virt. eigenvalues --    0.51900   0.52046   0.52513   0.52909   0.54032
 Alpha virt. eigenvalues --    0.55098   0.55451   0.55538   0.56297   0.57424
 Alpha virt. eigenvalues --    0.58106   0.58435   0.59179   0.60282   0.60502
 Alpha virt. eigenvalues --    0.61445   0.62064   0.62361   0.63693   0.64203
 Alpha virt. eigenvalues --    0.65051   0.65671   0.66404   0.66785   0.68124
 Alpha virt. eigenvalues --    0.68206   0.69368   0.69562   0.70719   0.71132
 Alpha virt. eigenvalues --    0.71766   0.72056   0.72339   0.72912   0.73878
 Alpha virt. eigenvalues --    0.74307   0.75035   0.75684   0.77207   0.78445
 Alpha virt. eigenvalues --    0.79418   0.79800   0.80623   0.81961   0.82305
 Alpha virt. eigenvalues --    0.83498   0.84280   0.84614   0.85133   0.85692
 Alpha virt. eigenvalues --    0.86191   0.87039   0.87815   0.88231   0.88491
 Alpha virt. eigenvalues --    0.89173   0.89454   0.89949   0.90504   0.90717
 Alpha virt. eigenvalues --    0.91398   0.91869   0.92119   0.92282   0.92754
 Alpha virt. eigenvalues --    0.93420   0.93892   0.94105   0.94734   0.95071
 Alpha virt. eigenvalues --    0.96001   0.96347   0.97019   0.97412   0.97834
 Alpha virt. eigenvalues --    0.98274   0.98989   0.99613   1.00117   1.00208
 Alpha virt. eigenvalues --    1.01166   1.01425   1.02399   1.02583   1.03270
 Alpha virt. eigenvalues --    1.03624   1.04852   1.05426   1.07958   1.08836
 Alpha virt. eigenvalues --    1.10923   1.11169   1.13158   1.13743   1.15992
 Alpha virt. eigenvalues --    1.18686   1.20332   1.20800   1.22455   1.24526
 Alpha virt. eigenvalues --    1.26495   1.27193   1.28136   1.29408   1.31228
 Alpha virt. eigenvalues --    1.35692   1.35946   1.38012   1.40728   1.42292
 Alpha virt. eigenvalues --    1.42623   1.43189   1.43839   1.46517   1.46933
 Alpha virt. eigenvalues --    1.48633   1.51366   1.53470   1.54441   1.55179
 Alpha virt. eigenvalues --    1.56453   1.58381   1.61804   1.62441   1.64013
 Alpha virt. eigenvalues --    1.65512   1.67446   1.68510   1.69036   1.70066
 Alpha virt. eigenvalues --    1.71501   1.73237   1.74028   1.74918   1.76287
 Alpha virt. eigenvalues --    1.76649   1.79253   1.80185   1.81232   1.82128
 Alpha virt. eigenvalues --    1.84270   1.85350   1.86534   1.86916   1.87837
 Alpha virt. eigenvalues --    1.89388   1.89847   1.90775   1.91208   1.92159
 Alpha virt. eigenvalues --    1.94861   1.96351   1.97041   1.97198   1.99054
 Alpha virt. eigenvalues --    1.99612   2.01529   2.02199   2.03690   2.04349
 Alpha virt. eigenvalues --    2.05247   2.06408   2.08616   2.09437   2.09487
 Alpha virt. eigenvalues --    2.10761   2.12700   2.13131   2.13521   2.15321
 Alpha virt. eigenvalues --    2.16562   2.17314   2.18391   2.20431   2.20842
 Alpha virt. eigenvalues --    2.23008   2.23366   2.24845   2.26959   2.27152
 Alpha virt. eigenvalues --    2.28111   2.28674   2.29042   2.30232   2.30607
 Alpha virt. eigenvalues --    2.32066   2.33198   2.33237   2.33767   2.35917
 Alpha virt. eigenvalues --    2.37274   2.38535   2.38575   2.40837   2.41276
 Alpha virt. eigenvalues --    2.42262   2.43662   2.46032   2.46724   2.48852
 Alpha virt. eigenvalues --    2.51082   2.52122   2.52620   2.53994   2.57110
 Alpha virt. eigenvalues --    2.58531   2.60884   2.61421   2.62589   2.65097
 Alpha virt. eigenvalues --    2.67334   2.67802   2.68934   2.70219   2.71382
 Alpha virt. eigenvalues --    2.73175   2.74270   2.75723   2.77872   2.79357
 Alpha virt. eigenvalues --    2.81196   2.84140   2.87844   2.89463   2.90812
 Alpha virt. eigenvalues --    2.94863   2.99865   3.06129   3.15433   3.17795
 Alpha virt. eigenvalues --    3.31187   3.44165   4.02817   4.10919   4.13524
 Alpha virt. eigenvalues --    4.14672   4.18526   4.20664   4.20797   4.22403
 Alpha virt. eigenvalues --    4.27519   4.29976   4.30479   4.33631   4.38025
 Alpha virt. eigenvalues --    4.42826   4.44666   4.46140   4.49978   4.55051
 Alpha virt. eigenvalues --    4.57859   4.63178   4.65697   4.74726   4.91180
          Condensed to atoms (all electrons):
 Mulliken charges:
               1
     1  C   -0.013287
     2  C    0.041969
     3  C    0.032439
     4  C    0.015571
     5  C    0.127475
     6  C   -0.285735
     7  C   -0.136905
     8  C   -0.285316
     9  H    0.137460
    10  H    0.137859
    11  S    0.184035
    12  C   -0.317745
    13  H    0.163983
    14  H    0.170086
    15  C   -0.265103
    16  H    0.145663
    17  H    0.144721
    18  C   -0.078923
    19  H    0.130467
    20  C   -0.464025
    21  H    0.145910
    22  H    0.153148
    23  H    0.148984
    24  C   -0.453134
    25  H    0.143427
    26  H    0.144304
    27  H    0.145195
    28  C   -0.376231
    29  H    0.160379
    30  C   -0.315740
    31  C   -0.166756
    32  C   -0.309565
    33  C   -0.351613
    34  H    0.135058
    35  H    0.153589
    36  C   -0.273885
    37  H    0.153441
    38  H    0.150172
    39  H    0.151985
    40  H    0.147803
    41  H    0.188250
    42  H    0.159628
    43  C   -0.005420
    44  H    0.135623
    45  C   -0.321784
    46  H    0.122862
    47  H    0.159723
    48  C   -0.475245
    49  H    0.148058
    50  H    0.177224
    51  H    0.162045
    52  H    0.139801
    53  H    0.138074
 Sum of Mulliken charges =  -0.00000
 Mulliken charges with hydrogens summed into heavy atoms:
               1
     1  C   -0.013287
     2  C    0.041969
     3  C    0.032439
     4  C    0.015571
     5  C    0.127475
     6  C   -0.148275
     7  C   -0.136905
     8  C   -0.147458
    11  S    0.184035
    12  C    0.016324
    15  C    0.025282
    18  C    0.051544
    20  C   -0.015982
    24  C   -0.020208
    28  C   -0.056225
    30  C   -0.037865
    31  C    0.021494
    32  C   -0.026703
    33  C   -0.044583
    36  C    0.028272
    43  C    0.130203
    45  C   -0.039198
    48  C    0.012083
 Electronic spatial extent (au):  <R**2>=          12559.8743
 Charge=             -0.0000 electrons
 Dipole moment (field-independent basis, Debye):
    X=             -0.9833    Y=              0.8227    Z=             -0.3187  Tot=              1.3211
 Quadrupole moment (field-independent basis, Debye-Ang):
   XX=           -128.4707   YY=           -142.8982   ZZ=           -147.0365
   XY=              1.5503   XZ=              0.5483   YZ=              0.0697
 Traceless Quadrupole moment (field-independent basis, Debye-Ang):
   XX=             10.9978   YY=             -3.4298   ZZ=             -7.5681
   XY=              1.5503   XZ=              0.5483   YZ=              0.0697
 Octapole moment (field-independent basis, Debye-Ang**2):
  XXX=              8.0376  YYY=              7.5698  ZZZ=              3.0621  XYY=             -7.1580
  XXY=              2.6286  XXZ=            -23.0786  XZZ=             -7.3356  YZZ=              1.7305
  YYZ=             -3.8062  XYZ=              2.6566
 Hexadecapole moment (field-independent basis, Debye-Ang**3):
 XXXX=         -14020.2297 YYYY=          -2161.0299 ZZZZ=           -638.7180 XXXY=             61.7491
 XXXZ=            -28.9114 YYYX=            -15.6821 YYYZ=             -1.8407 ZZZX=             -8.5404
 ZZZY=              7.0931 XXYY=          -2800.5555 XXZZ=          -2484.3123 YYZZ=           -469.6176
 XXYZ=              5.2059 YYXZ=             -2.7833 ZZXY=             -2.1002
 N-N= 2.065631177470D+03 E-N=-7.060849471466D+03  KE= 1.248545822951D+03
 No NMR shielding tensors so no spin-rotation constants.
 Leave Link  601 at Wed Nov  8 22:32:08 2023, MaxMem=  5368709120 cpu:               3.7 elap:               0.2
 (Enter /home/Data/zhangqian/application/g16/l701.exe)
 ... and contract with generalized density number  0.
 Compute integral first derivatives.
 R6Disp: Adding Grimme-D3 dispersion energy 1st derivatives to the gradient.
 D1PCM: PCM CHGder 1st derivatives, ID1Alg=3 FixD1E=F DoIter=F DoCFld=F I1PDM=0.
 GePol: Maximum number of non-zero 1st derivatives   =     250
 Leave Link  701 at Wed Nov  8 22:32:09 2023, MaxMem=  5368709120 cpu:              34.1 elap:               1.4
 (Enter /home/Data/zhangqian/application/g16/l702.exe)
 L702 exits ... SP integral derivatives will be done elsewhere.
 Leave Link  702 at Wed Nov  8 22:32:09 2023, MaxMem=  5368709120 cpu:               0.7 elap:               0.0
 (Enter /home/Data/zhangqian/application/g16/l703.exe)
 Integral derivatives from FoFJK, PRISM(SPDF).
 Compute integral first derivatives, UseDBF=F ICtDFT=           0.
 Calling FoFJK, ICntrl=      2127 FMM=F ISym2X=0 I1Cent= 0 IOpClX= 0 NMat=1 NMatS=1 NMatT=0.
 FoFJK:  IHMeth= 1 ICntrl=    2127 DoSepK=F KAlg= 0 I1Cent=           0 FoldK=F
 IRaf=         0 NMat=       1 IRICut=       1 DoRegI=T DoRafI=F ISym2E= 0 IDoP0=0 IntGTp=1.
 FoFCou: FMM=F IPFlag=           0 FMFlag=      100000 FMFlg1=         800
         NFxFlg=           0 DoJE=F BraDBF=F KetDBF=F FulRan=T
         wScrn=  0.000000 ICntrl=      2127 IOpCl=  0 I1Cent=           0 NGrid=           0
         NMat0=    1 NMatS0=      1 NMatT0=    0 NMatD0=    1 NMtDS0=    0 NMtDT0=    0
 Symmetry not used in FoFCou.
 Leave Link  703 at Wed Nov  8 22:32:16 2023, MaxMem=  5368709120 cpu:             156.7 elap:               6.5
 (Enter /home/Data/zhangqian/application/g16/l716.exe)
 Dipole        =-3.86875049D-01 3.23684579D-01-1.25367553D-01
 ***** Axes restored to original set *****
 -------------------------------------------------------------------
 Center     Atomic                   Forces (Hartrees/Bohr)
 Number     Number              X              Y              Z
 -------------------------------------------------------------------
      1        6          -0.183885341    0.425715237   -0.000456218
      2        6           0.011561037    0.039751535    0.001775471
      3        6          -0.023720395   -0.009324380   -0.001310584
      4        6           0.006414745    0.024284030   -0.033319265
      5        6          -0.012095260    0.029214386   -0.000473628
      6        6           0.010674744   -0.014138115    0.000544567
      7        6          -0.196421837   -0.065641790    0.006392896
      8        6           0.019718313   -0.066356616   -0.000116465
      9        1          -0.006956080    0.002422353   -0.000015759
     10        1           0.002403095    0.002690861    0.000174687
     11       16           0.341026761   -0.346694763    0.000948127
     12        6           0.015520297    0.040618608   -0.021418888
     13        1           0.005867825   -0.008524976    0.015417978
     14        1          -0.014643313    0.000120448    0.003759049
     15        6          -0.014983471   -0.025266629    0.023613252
     16        1           0.018270567    0.005651095   -0.000194202
     17        1          -0.003779756    0.009271320   -0.015350055
     18        6          -0.003506474    0.013749996   -0.030431268
     19        1           0.005917012   -0.009741221    0.015776037
     20        6           0.022201469   -0.002252760    0.008926225
     21        1          -0.007020925   -0.015531990   -0.006611322
     22        1          -0.014039466   -0.000768366    0.011372246
[...]
      1          6           0        0.211736   -0.689526   -0.992141
      2          6           0        0.258892    0.636093   -0.502945
      3          6           0       -0.949232    1.321289   -0.226966
      4          6           0       -2.156933    0.652306   -0.434586
      5          6           0       -2.182941   -0.666676   -0.959499
      6          6           0       -0.999992   -1.344392   -1.232035
      7          6           0        2.564890    0.189450   -0.698233
      8          6           0        1.616399    1.100686   -0.348622
      9          1           0       -1.022794   -2.356577   -1.627214
     10          1           0        1.876905    2.087368    0.019367
     11         16           0        1.833266   -1.327749   -1.249499
     12          6           0        4.057273    0.335011   -0.628545
     13          1           0        4.507384    0.081256   -1.598673
     14          1           0        4.275716    1.393129   -0.447951
     15          6           0        4.706538   -0.535621    0.466818
     16          1           0        4.416412   -1.582091    0.302240
     17          1           0        4.290799   -0.248892    1.443432
     18          6           0        6.242929   -0.448575    0.518958
     19          1           0        6.626383   -0.709427   -0.479689
     20          6           0        6.737623    0.963741    0.866129
     21          1           0        7.832013    0.988661    0.927948
     22          1           0        6.432665    1.704744    0.119374
     23          1           0        6.340036    1.282888    1.838804
     24          6           0        6.796196   -1.471932    1.521638
     25          1           0        6.482315   -2.491331    1.266861
     26          1           0        7.892233   -1.450655    1.544776
     27          1           0        6.436396   -1.253956    2.535899
     28          6           0       -3.540510   -1.259831   -1.243363
     29          1           0       -3.449876   -2.305314   -1.559991
     30          6           0       -4.322834    0.204686    0.704403
     31          6           0       -3.507442    1.255447   -0.081534
     32          6           0       -3.379267    2.564392    0.711544
     33          6           0       -0.914444    2.751070    0.277368
     34          1           0       -3.140625    2.330888    1.759895
     35          1           0       -0.142583    3.313839   -0.262404
     36          6           0       -2.271796    3.451870    0.139328
     37          1           0       -0.607118    2.757656    1.334309
     38          1           0       -2.475621    3.653667   -0.921593
     39          1           0       -2.243946    4.421394    0.650276
     40          1           0       -4.344302    3.085477    0.716529
     41          1           0       -4.043986    1.477412   -1.018973
     42          1           0       -3.977806   -0.717628   -2.094607
     43          6           0       -4.518377   -1.143279   -0.042254
     44          1           0       -5.536255   -1.172082   -0.454743
     45          6           0       -4.371474   -2.343828    0.910042
     46          1           0       -4.474151   -3.271237    0.329676
     47          1           0       -3.350499   -2.346430    1.319437
     48          6           0       -5.391383   -2.355875    2.053771
     49          1           0       -5.266804   -3.243325    2.684869
     50          1           0       -5.290458   -1.474443    2.697102
     51          1           0       -6.416288   -2.364309    1.661451
     52          1           0       -3.780937    0.022879    1.642932
     53          1           0       -5.292564    0.631381    0.986982
 ---------------------------------------------------------------------
 Rotational constants (GHZ):           0.4494100           0.1021452           0.0924760
 Leave Link  202 at Wed Nov  8 22:47:12 2023, MaxMem=  5368709120 cpu:               0.0 elap:               0.0
 (Enter /home/Data/zhangqian/application/g16/l601.exe)
 Copying SCF densities to generalized density rwf, IOpCl= 0 IROHF=0.

 **********************************************************************

            Population analysis using the SCF density.

 **********************************************************************

 Orbital symmetries:
       Occupied  (A) (A) (A) (A) (A) (A) (A) (A) (A) (A) (A) (A)
                 (A) (A) (A) (A) (A) (A) (A) (A) (A) (A) (A) (A)
                 (A) (A) (A) (A) (A) (A) (A) (A) (A) (A) (A) (A)
                 (A) (A) (A) (A) (A) (A) (A) (A) (A) (A) (A) (A)
                 (A) (A) (A) (A) (A) (A) (A) (A) (A) (A) (A) (A)
                 (A) (A) (A) (A) (A) (A) (A) (A) (A) (A) (A) (A)
                 (A) (A) (A) (A) (A) (A) (A) (A) (A) (A) (A) (A)
                 (A) (A) (A) (A) (A)
       Virtual   (A) (A) (A) (A) (A) (A) (A) (A) (A) (A) (A) (A)
                 (A) (A) (A) (A) (A) (A) (A) (A) (A) (A) (A) (A)
                 (A) (A) (A) (A) (A) (A) (A) (A) (A) (A) (A) (A)
                 (A) (A) (A) (A) (A) (A) (A) (A) (A) (A) (A) (A)
                 (A) (A) (A) (A) (A) (A) (A) (A) (A) (A) (A) (A)
                 (A) (A) (A) (A) (A) (A) (A) (A) (A) (A) (A) (A)
                 (A) (A) (A) (A) (A) (A) (A) (A) (A) (A) (A) (A)
                 (A) (A) (A) (A) (A) (A) (A) (A) (A) (A) (A) (A)
                 (A) (A) (A) (A) (A) (A) (A) (A) (A) (A) (A) (A)
                 (A) (A) (A) (A) (A) (A) (A) (A) (A) (A) (A) (A)
                 (A) (A) (A) (A) (A) (A) (A) (A) (A) (A) (A) (A)
                 (A) (A) (A) (A) (A) (A) (A) (A) (A) (A) (A) (A)
                 (A) (A) (A) (A) (A) (A) (A) (A) (A) (A) (A) (A)
                 (A) (A) (A) (A) (A) (A) (A) (A) (A) (A) (A) (A)
                 (A) (A) (A) (A) (A) (A) (A) (A) (A) (A) (A) (A)
                 (A) (A) (A) (A) (A) (A) (A) (A) (A) (A) (A) (A)
                 (A) (A) (A) (A) (A) (A) (A) (A) (A) (A) (A) (A)
                 (A) (A) (A) (A) (A) (A) (A) (A) (A) (A) (A) (A)
                 (A) (A) (A) (A) (A) (A) (A) (A) (A) (A) (A) (A)
                 (A) (A) (A) (A) (A) (A) (A) (A) (A) (A) (A) (A)
                 (A) (A) (A) (A) (A) (A) (A) (A) (A) (A) (A) (A)
                 (A) (A) (A) (A) (A) (A) (A) (A) (A) (A) (A) (A)
                 (A) (A) (A) (A) (A) (A) (A) (A) (A) (A) (A) (A)
                 (A) (A) (A) (A) (A) (A) (A) (A) (A) (A) (A) (A)
                 (A) (A) (A) (A) (A) (A) (A) (A) (A) (A) (A) (A)
                 (A) (A) (A) (A) (A) (A) (A) (A) (A) (A) (A) (A)
                 (A) (A) (A) (A) (A) (A) (A) (A)
 The electronic state is 1-A.
 Alpha  occ. eigenvalues --  -88.89883 -10.22012 -10.21506 -10.19336 -10.19246
 Alpha  occ. eigenvalues --  -10.19168 -10.18893 -10.18803 -10.18621 -10.18613
 Alpha  occ. eigenvalues --  -10.18585 -10.18368 -10.18359 -10.18319 -10.18025
 Alpha  occ. eigenvalues --  -10.18010 -10.17808 -10.17576 -10.17502 -10.17501
 Alpha  occ. eigenvalues --  -10.16948 -10.16932 -10.16926  -7.95983  -5.92411
 Alpha  occ. eigenvalues --   -5.92062  -5.91628  -0.88746  -0.85345  -0.81470
 Alpha  occ. eigenvalues --   -0.81121  -0.79790  -0.76711  -0.75634  -0.74383
 Alpha  occ. eigenvalues --   -0.72481  -0.70505  -0.69962  -0.67786  -0.66410
 Alpha  occ. eigenvalues --   -0.63871  -0.62042  -0.60844  -0.59521  -0.57302
 Alpha  occ. eigenvalues --   -0.55559  -0.54098  -0.53400  -0.52996  -0.49938
 Alpha  occ. eigenvalues --   -0.47963  -0.46843  -0.45889  -0.45137  -0.44086
 Alpha  occ. eigenvalues --   -0.44000  -0.43669  -0.43090  -0.42599  -0.42370
 Alpha  occ. eigenvalues --   -0.41206  -0.40033  -0.39733  -0.39150  -0.38841
 Alpha  occ. eigenvalues --   -0.38195  -0.38014  -0.37683  -0.36980  -0.36464
 Alpha  occ. eigenvalues --   -0.35854  -0.35723  -0.35144  -0.34998  -0.34480
 Alpha  occ. eigenvalues --   -0.33740  -0.33350  -0.32642  -0.32246  -0.31970
 Alpha  occ. eigenvalues --   -0.31686  -0.31571  -0.30772  -0.29566  -0.29335
 Alpha  occ. eigenvalues --   -0.28812  -0.26886  -0.21962  -0.20615
 Alpha virt. eigenvalues --   -0.02072   0.00454   0.02330   0.05291   0.08070
 Alpha virt. eigenvalues --    0.09111   0.09981   0.10439   0.10733   0.12447
 Alpha virt. eigenvalues --    0.12557   0.12806   0.13008   0.13706   0.14065
 Alpha virt. eigenvalues --    0.14605   0.14896   0.15517   0.15606   0.16016
 Alpha virt. eigenvalues --    0.16279   0.16546   0.16681   0.16915   0.17566
 Alpha virt. eigenvalues --    0.17835   0.18299   0.18737   0.19260   0.19309
 Alpha virt. eigenvalues --    0.19580   0.20017   0.20718   0.21250   0.21633
 Alpha virt. eigenvalues --    0.21880   0.22096   0.22993   0.23299   0.23535
 Alpha virt. eigenvalues --    0.23825   0.24801   0.25313   0.25404   0.26236
 Alpha virt. eigenvalues --    0.26539   0.26897   0.27423   0.28489   0.30190
 Alpha virt. eigenvalues --    0.30505   0.30970   0.31988   0.34042   0.34965
 Alpha virt. eigenvalues --    0.36628   0.37634   0.38349   0.40121   0.42160
 Alpha virt. eigenvalues --    0.43402   0.47224   0.48537   0.49378   0.50548
 Alpha virt. eigenvalues --    0.51019   0.51384   0.51851   0.52385   0.52740
 Alpha virt. eigenvalues --    0.53595   0.53781   0.54425   0.55126   0.56071
 Alpha virt. eigenvalues --    0.56740   0.56871   0.57424   0.57951   0.58364
 Alpha virt. eigenvalues --    0.58712   0.59263   0.60298   0.61328   0.62404
 Alpha virt. eigenvalues --    0.62677   0.63160   0.64364   0.64503   0.65482
 Alpha virt. eigenvalues --    0.65855   0.66560   0.67597   0.68577   0.69227
 Alpha virt. eigenvalues --    0.70166   0.70598   0.72144   0.72745   0.73237
 Alpha virt. eigenvalues --    0.73682   0.74205   0.74638   0.75070   0.77646
 Alpha virt. eigenvalues --    0.78084   0.78749   0.79384   0.79873   0.80825
 Alpha virt. eigenvalues --    0.81550   0.81822   0.83049   0.84031   0.84280
 Alpha virt. eigenvalues --    0.84730   0.85258   0.85512   0.85995   0.86925
 Alpha virt. eigenvalues --    0.87544   0.87781   0.88215   0.88469   0.89088
 Alpha virt. eigenvalues --    0.89812   0.90066   0.90545   0.90578   0.90853
 Alpha virt. eigenvalues --    0.91119   0.92369   0.92492   0.92670   0.93095
 Alpha virt. eigenvalues --    0.94023   0.94310   0.94993   0.95180   0.95326
 Alpha virt. eigenvalues --    0.96187   0.96218   0.96702   0.96984   0.97612
 Alpha virt. eigenvalues --    0.97917   0.98521   0.99371   1.00117   1.01514
 Alpha virt. eigenvalues --    1.02323   1.02544   1.03441   1.04397   1.04779
 Alpha virt. eigenvalues --    1.06431   1.07567   1.09030   1.09609   1.11701
 Alpha virt. eigenvalues --    1.14153   1.15435   1.18290   1.21149   1.22185
 Alpha virt. eigenvalues --    1.25425   1.25870   1.26941   1.29304   1.31539
 Alpha virt. eigenvalues --    1.32783   1.33885   1.36649   1.39341   1.40004
 Alpha virt. eigenvalues --    1.40945   1.43406   1.45189   1.45674   1.46427
 Alpha virt. eigenvalues --    1.47191   1.48461   1.50355   1.52784   1.54962
 Alpha virt. eigenvalues --    1.55497   1.57805   1.58369   1.59701   1.61202
 Alpha virt. eigenvalues --    1.62807   1.63162   1.65786   1.66467   1.67606
 Alpha virt. eigenvalues --    1.69316   1.70882   1.72062   1.75513   1.76345
 Alpha virt. eigenvalues --    1.77130   1.77709   1.79381   1.79977   1.80613
 Alpha virt. eigenvalues --    1.81282   1.83561   1.84781   1.85959   1.86735
 Alpha virt. eigenvalues --    1.87064   1.87987   1.89134   1.89427   1.90590
 Alpha virt. eigenvalues --    1.91738   1.92314   1.92800   1.94066   1.95561
 Alpha virt. eigenvalues --    1.96234   1.96628   1.97389   1.97878   1.98328
 Alpha virt. eigenvalues --    1.99113   1.99887   2.01824   2.02648   2.03934
 Alpha virt. eigenvalues --    2.04887   2.05738   2.06901   2.08346   2.09690
 Alpha virt. eigenvalues --    2.10726   2.12321   2.12901   2.15750   2.15870
 Alpha virt. eigenvalues --    2.18344   2.19111   2.20501   2.20776   2.22811
 Alpha virt. eigenvalues --    2.23326   2.24480   2.25389   2.26413   2.27560
 Alpha virt. eigenvalues --    2.29034   2.30261   2.30661   2.32054   2.32354
 Alpha virt. eigenvalues --    2.34021   2.35527   2.35763   2.36679   2.37784
 Alpha virt. eigenvalues --    2.39500   2.41697   2.42399   2.42770   2.44995
 Alpha virt. eigenvalues --    2.46063   2.47427   2.48281   2.49340   2.50866
 Alpha virt. eigenvalues --    2.51899   2.52374   2.53419   2.56224   2.59688
 Alpha virt. eigenvalues --    2.61876   2.63597   2.64747   2.65745   2.68562
 Alpha virt. eigenvalues --    2.69349   2.72484   2.74253   2.76083   2.77677
 Alpha virt. eigenvalues --    2.79110   2.79799   2.81069   2.84307   2.87953
 Alpha virt. eigenvalues --    2.90524   2.90981   2.96310   3.02112   3.09576
 Alpha virt. eigenvalues --    3.25386   3.41677   3.95981   4.10736   4.10976
 Alpha virt. eigenvalues --    4.13217   4.14516   4.16936   4.18325   4.21852
 Alpha virt. eigenvalues --    4.25515   4.27167   4.29115   4.33693   4.36397
 Alpha virt. eigenvalues --    4.40740   4.42038   4.46323   4.46720   4.50307
 Alpha virt. eigenvalues --    4.54278   4.59836   4.60682   4.72984   4.83239
          Condensed to atoms (all electrons):
 Mulliken charges:
               1
     1  C   -0.150139
     2  C    0.075997
     3  C    0.060579
     4  C    0.039167
     5  C    0.143790
     6  C   -0.277514
     7  C   -0.116125
     8  C   -0.182444
     9  H    0.145480
    10  H    0.153351
    11  S    0.168004
    12  C   -0.338740
    13  H    0.158969
    14  H    0.167626
    15  C   -0.253362
    16  H    0.142339
    17  H    0.136858
    18  C   -0.064640
    19  H    0.126011
    20  C   -0.454424
    21  H    0.144167
    22  H    0.148908
    23  H    0.142038
    24  C   -0.450354
    25  H    0.143245
    26  H    0.143152
    27  H    0.141772
    28  C   -0.371458
    29  H    0.144658
    30  C   -0.282066
    31  C   -0.165026
    32  C   -0.272156
    33  C   -0.344845
    34  H    0.134435
    35  H    0.151965
    36  C   -0.271363
    37  H    0.155169
    38  H    0.138753
    39  H    0.136980
    40  H    0.136378
    41  H    0.139067
    42  H    0.153582
    43  C   -0.061907
    44  H    0.122090
    45  C   -0.258198
    46  H    0.130696
    47  H    0.132211
    48  C   -0.454298
    49  H    0.143968
    50  H    0.150203
    51  H    0.143099
    52  H    0.135495
    53  H    0.138859
 Sum of Mulliken charges =  -0.00000
 Mulliken charges with hydrogens summed into heavy atoms:
               1
     1  C   -0.150139
     2  C    0.075997
     3  C    0.060579
     4  C    0.039167
     5  C    0.143790
     6  C   -0.132034
     7  C   -0.116125
     8  C   -0.029093
    11  S    0.168004
    12  C   -0.012145
    15  C    0.025834
    18  C    0.061371
    20  C   -0.019311
    24  C   -0.022184
    28  C   -0.073218
    30  C   -0.007712
    31  C   -0.025959
    32  C   -0.001344
    33  C   -0.037711
    36  C    0.004370
    43  C    0.060184
    45  C    0.004709
    48  C   -0.017027
 Electronic spatial extent (au):  <R**2>=          12212.8709
 Charge=              0.0000 electrons
 Dipole moment (field-independent basis, Debye):
    X=             -0.4014    Y=              1.5031    Z=              0.6176  Tot=              1.6738
 Quadrupole moment (field-independent basis, Debye-Ang):
   XX=           -131.7102   YY=           -143.1600   ZZ=           -150.7576
   XY=              1.9243   XZ=              1.6864   YZ=              2.2672
 Traceless Quadrupole moment (field-independent basis, Debye-Ang):
   XX=             10.1658   YY=             -1.2841   ZZ=             -8.8817
   XY=              1.9243   XZ=              1.6864   YZ=              2.2672
 Octapole moment (field-independent basis, Debye-Ang**2):
  XXX=             22.6183  YYY=              7.1583  ZZZ=              8.7681  XYY=             -8.6854
  XXY=              7.1602  XXZ=            -13.9751  XZZ=             -2.7487  YZZ=              0.3722
  YYZ=             -1.9585  XYZ=             -3.8205
 Hexadecapole moment (field-independent basis, Debye-Ang**3):
 XXXX=         -12913.2069 YYYY=          -2468.6094 ZZZZ=          -1071.3854 XXXY=            -23.1679
 XXXZ=              7.3478 YYYX=              6.7571 YYYZ=             20.7804 ZZZX=             10.8858
 ZZZY=              5.8794 XXYY=          -2639.2875 XXZZ=          -2422.3414 YYZZ=           -592.6768
 XXYZ=             20.4549 YYXZ=              0.7682 ZZXY=              3.6123
 N-N= 2.035952568255D+03 E-N=-6.999119328046D+03  KE= 1.244865269300D+03
 No NMR shielding tensors so no spin-rotation constants.
 Leave Link  601 at Wed Nov  8 22:47:12 2023, MaxMem=  5368709120 cpu:               3.5 elap:               0.2
 (Enter /home/Data/zhangqian/application/g16/l9999.exe)
 1\1\GINC-INFRARED\FOpt\RB3LYP\6-31G(d)\C22H30S1\ZHANGQIAN\08-Nov-2023\
 0\\#p opt b3lyp/6-31g(d) scrf=(solvent=water,pcm) empiricaldispersion=
 gd3\\Title Card Required\\0,1\C,-14.8969716397,-8.9824052769,9.5405164
 942\C,-16.2992362427,-9.1401793199,9.4535363744\C,-17.1368336327,-8.00
 28387666,9.5540680828\C,-16.5426548459,-6.7506075617,9.721561079\C,-15
 .13409771,-6.6182388811,9.8414341732\C,-14.3068028831,-7.7312882341,9.
 7432201297\C,-15.6182460013,-11.3819110902,9.1963484042\C,-16.67040157
 98,-10.5208159484,9.2571484187\H,-13.2284273326,-7.626106464,9.8283584
 129\H,-17.6959489411,-10.8603249406,9.1581235507\S,-14.074104419,-10.5
 315881631,9.3797611715\C,-15.6493684423,-12.8654531116,8.9696669656\H,
 -15.0770038555,-13.3797167218,9.7545698319\H,-16.6898005289,-13.191704
 9614,9.0745837222\C,-15.0975465039,-13.2856729955,7.5918894151\H,-14.0
 791615486,-12.8884277946,7.4848967421\H,-15.7002265866,-12.808694561,6
 .8056996831\C,-15.0640357704,-14.8073212856,7.3589531334\H,-14.4820475
 454,-15.2578949419,8.1778851434\C,-16.4673346255,-15.4322180677,7.3708
 302056\H,-16.415702035,-16.5089985294,7.1708043712\H,-16.9717267047,-1
 5.2996621075,8.3340255845\H,-17.0980490059,-14.977531369,6.595274576\C
 ,-14.3474700755,-15.1237584925,6.0379186712\H,-13.3296075877,-14.71577
 27757,6.0274526783\H,-14.2805630518,-16.2057478901,5.8732732229\H,-14.
 8914289738,-14.6896583801,5.1885889039\C,-14.6017730963,-5.2353045536,
 10.1234454274\H,-13.5057505214,-5.2298300844,10.109115549\C,-16.647325
 4946,-4.4394484255,8.8070241177\C,-17.3378266941,-5.4546642955,9.74468
 36291\C,-18.8090142385,-5.6587125471,9.3539036839\C,-18.6436300721,-8.
 1595725169,9.4845186384\H,-18.8832063512,-5.7564918695,8.2605380878\H,
 -18.9488128374,-9.0464782771,10.0538101464\C,-19.383904518,-6.91997445
 31,10.0021777506\H,-18.9424838398,-8.3536220216,8.4430544359\H,-19.272
 8236572,-6.8539903414,11.093566278\H,-20.4562784264,-7.0128612949,9.79
 43184295\H,-19.3881342151,-4.7694502624,9.6308120497\H,-17.3117254131,
 -5.0498900765,10.7700697563\H,-14.8972310004,-4.9586915823,11.14619577
 13\C,-15.1588815028,-4.1592982391,9.1516882896\H,-15.0944266674,-3.194
 0853598,9.6725174029\C,-14.2937517395,-4.0582211381,7.8823971853\H,-13
 .2468391193,-3.9038622841,8.1783731925\H,-14.3271877905,-5.0229695776,
 7.3550051924\C,-14.7150472115,-2.930960932,6.9335698856\H,-14.05218448
 8,-2.8796113097,6.0621640856\H,-15.7374577574,-3.0714070507,6.56487800
 31\H,-14.6766234413,-1.9592040314,7.4421253237\H,-16.7114259879,-4.854
 3065024,7.7914815588\H,-17.2210031294,-3.5050902213,8.7942319178\\Vers
 ion=ES64L-G16RevA.03\State=1-A\HF=-1254.708982\RMSD=3.955e-09\RMSF=6.2
 86e-06\Dipole=-0.6483737,0.1088257,-0.0379564\Quadrupole=-0.7385786,7.
 3217045,-6.5831259,1.0622129,-0.1756893,2.7156758\PG=C01 [X(C22H30S1)]
 \\@


 A MAN THINKING OR WORKING IS ALWAYS ALONE, 
 LET HIM BE WHERE HE WILL.

                                    -- THOREAU
 Job cpu time:       0 days  6 hours  0 minutes 32.5 seconds.
 Elapsed time:       0 days  0 hours 15 minutes 34.8 seconds.
 File lengths (MBytes):  RWF=    486 Int=      0 D2E=      0 Chk=     21 Scr=      1
 Normal termination of Gaussian 16 at Wed Nov  8 22:47:12 2023.
