 Entering Gaussian System, Link 0=g16
 Input=resin4.gjf
 Output=resin4.log
 Initial command:
 /home/Data/zhangqian/application/g16/l1.exe "./Gau-65841.inp" -scrdir="./"
 Default is to use a total of  24 processors:
                               24 via shared-memory
                                1 via Linda
 Entering Link 1 = /home/Data/zhangqian/application/g16/l1.exe PID=     65843.
  
 Copyright (c) 1988,1990,1992,1993,1995,1998,2003,2009,2016,
            Gaussian, Inc.  All Rights Reserved.
  
 This is part of the Gaussian(R) 16 program.  It is based on
 the Gaussian(R) 09 system (copyright 2009, Gaussian, Inc.),
 the Gaussian(R) 03 system (copyright 2003, Gaussian, Inc.),
 the Gaussian(R) 98 system (copyright 1998, Gaussian, Inc.),
 the Gaussian(R) 94 system (copyright 1995, Gaussian, Inc.),
 the Gaussian 92(TM) system (copyright 1992, Gaussian, Inc.),
 the Gaussian 90(TM) system (copyright 1990, Gaussian, Inc.),
 the Gaussian 88(TM) system (copyright 1988, Gaussian, Inc.),
 the Gaussian 86(TM) system (copyright 1986, Carnegie Mellon
 University), and the Gaussian 82(TM) system (copyright 1983,
 Carnegie Mellon University). Gaussian is a federally registered
 trademark of Gaussian, Inc.
  
 This software contains proprietary and confidential information,
 including trade secrets, belonging to Gaussian, Inc.
  
 This software is provided under written license and may be
 used, copied, transmitted, or stored only in accord with that
 written license.
  
 The following legend is applicable only to US Government
 contracts under FAR:
  
                    RESTRICTED RIGHTS LEGEND
  
 Use, reproduction and disclosure by the US Government is
 subject to restrictions as set forth in subparagraphs (a)
 and (c) of the Commercial Computer Software - Restricted
 Rights clause in FAR 52.227-19.
  
 Gaussian, Inc.
 340 Quinnipiac St., Bldg. 40, Wallingford CT 06492
  
  
 ---------------------------------------------------------------
 Warning -- This program may not be used in any manner that
 competes with the business of Gaussian, Inc. or will provide
 assistance to any competitor of Gaussian, Inc.  The licensee
 of this program is prohibited from giving any competitor of
 Gaussian, Inc. access to this program.  By using this program,
 the user acknowledges that Gaussian, Inc. is engaged in the
 business of creating and licensing software in the field of
 computational chemistry and represents and warrants to the
 licensee that it is not a competitor of Gaussian, Inc. and that
 it will not use this program in any manner prohibited above.
 ---------------------------------------------------------------
  

 Cite this work as:
 Gaussian 16, Revision A.03,
 M. J. Frisch, G. W. Trucks, H. B. Schlegel, G. E. Scuseria, 
 M. A. Robb, J. R. Cheeseman, G. Scalmani, V. Barone, 
 G. A. Petersson, H. Nakatsuji, X. Li, M. Caricato, A. V. Marenich, 
 J. Bloino, B. G. Janesko, R. Gomperts, B. Mennucci, H. P. Hratchian, 
 J. V. Ortiz, A. F. Izmaylov, J. L. Sonnenberg, D. Williams-Young, 
 F. Ding, F. Lipparini, F. Egidi, J. Goings, B. Peng, A. Petrone, 
 T. Henderson, D. Ranasinghe, V. G. Zakrzewski, J. Gao, N. Rega, 
 G. Zheng, W. Liang, M. Hada, M. Ehara, K. Toyota, R. Fukuda, 
 J. Hasegawa, M. Ishida, T. Nakajima, Y. Honda, O. Kitao, H. Nakai, 
 T. Vreven, K. Throssell, J. A. Montgomery, Jr., J. E. Peralta, 
 F. Ogliaro, M. J. Bearpark, J. J. Heyd, E. N. Brothers, K. N. Kudin, 
 V. N. Staroverov, T. A. Keith, R. Kobayashi, J. Normand, 
 K. Raghavachari, A. P. Rendell, J. C. Burant, S. S. Iyengar, 
 J. Tomasi, M. Cossi, J. M. Millam, M. Klene, C. Adamo, R. Cammi, 
 J. W. Ochterski, R. L. Martin, K. Morokuma, O. Farkas, 
 J. B. Foresman, and D. J. Fox, Gaussian, Inc., Wallingford CT, 2016.
 
 ******************************************
 Gaussian 16:  ES64L-G16RevA.03 25-Dec-2016
                 8-Nov-2023 
 ******************************************
 %nprocshared=24
 Will use up to   24 processors via shared memory.
 %mem=40GB
 %chk=resin4.chk
 ----------------------------------------------------------------------
 #p opt b3lyp/6-31g(d) scrf=(solvent=water,pcm) empiricaldispersion=gd3
 ----------------------------------------------------------------------
 1/18=20,19=15,26=3,38=1/1,3;
 2/9=110,12=2,17=6,18=5,40=1/2;
 3/5=1,6=6,7=1,11=2,25=1,30=1,70=2201,71=1,72=1,74=-5,124=31/1,2,3;
 4//1;
 5/5=2,38=5,53=1/2;
 6/7=2,8=2,9=2,10=2,28=1/1;
 7//1,2,3,16;
 1/18=20,19=15,26=3/3(2);
 2/9=110/2;
 99//99;
 2/9=110/2;
 3/5=1,6=6,7=1,11=2,25=1,30=1,70=2205,71=1,72=1,74=-5,124=31/1,2,3;
 4/5=5,16=3,69=1/1;
 5/5=2,38=5,53=1/2;
 7//1,2,3,16;
 1/18=20,19=15,26=3/3(-5);
 2/9=110/2;
 6/7=2,8=2,9=2,10=2,19=2,28=1/1;
 99/9=1/99;
 Leave Link    1 at Wed Nov  8 22:15:38 2023, MaxMem=  5368709120 cpu:               1.1 elap:               0.1
 (Enter /home/Data/zhangqian/application/g16/l101.exe)
 -------------------
 Title Card Required
 -------------------
 Symbolic Z-matrix:
 Charge =  0 Multiplicity = 1
 C                    -20.67684  -8.47309   2.54657 
 C                    -19.30404  -8.47309   2.54657 
 C                    -18.58211  -7.24797   2.54657 
 C                    -19.29998  -6.0241    2.54694 
 C                    -20.72139  -6.05348   2.54709 
 C                    -21.3929  -7.25145   2.5468 
 H                    -16.61303  -8.17293   2.54632 
 H                    -18.73925  -9.41741   2.54634 
 C                    -17.16038  -7.21843   2.5463 
 C                    -18.57723  -4.79938   2.54705 
 H                    -21.26863  -5.09902   2.54717 
 H                    -22.49253  -7.27782   2.5469 
 C                    -17.20436  -4.79931   2.54678 
 C                    -16.48835  -6.0212    2.54632 
 C                    -14.9488  -5.98415   2.54606 
 C                    -16.41937  -3.4744    2.54653 
 C                    -14.21111  -4.63236   2.53677 
 C                    -14.87947  -3.49177   2.54653 
 H                    -14.61952  -6.51809   3.41289 
 H                    -14.61952  -6.52996   1.68666 
 H                    -13.56589  -4.62318   3.39029 
 H                    -13.58941  -4.6222    1.66597 
 H                    -14.56125  -2.93641   1.68909 
 H                    -14.56142  -2.95127   3.41348 
 C                    -19.36721  -3.47744   2.54741 
 C                    -18.61738  -2.13232   2.54778 
 C                    -17.17428  -2.13212   2.54628 
 H                    -19.99952  -3.48672   1.68428 
 H                    -19.99952  -3.48719   3.41054 
 H                    -16.85455  -1.58627   3.40925 
 H                    -16.85635  -1.58761   1.68179 
 H                    -16.41937  -3.4742    3.61653 
 C                    -19.39748  -0.80453   2.54974 
 H                    -20.02023  -0.75546   1.68102 
 H                    -20.00584  -0.74958   3.42825 
 H                    -18.7084   0.014     2.54131 
 H                    -18.61782  -2.13057   3.61778 
 C                    -21.46187  -9.79798   2.54645 
 H                    -21.7008  -10.07107   3.55305 
 H                    -22.36511  -9.67731   1.98566 
 C                    -20.60302  -10.90349   1.90472 
 H                    -19.79478  -11.15284   2.56006 
 H                    -20.21138  -10.55468   0.97206 
 C                    -21.47112  -12.15215   1.66212 
 H                    -21.91604  -12.46195   2.5846 
 H                    -22.24026  -11.92001   0.95542 
 C                    -20.59187  -13.28905   1.10896 
 H                    -20.14975  -12.98056   0.1847 
 C                    -21.45901  -14.5393   0.87114 
 H                    -20.84754  -15.33014   0.48958 
 H                    -21.90349  -14.84606   1.79485 
 H                    -22.22848  -14.31038   0.16374 
 C                    -19.48182  -13.61971   2.12387 
 H                    -18.63549  -12.99005   1.94456 
 H                    -19.84538  -13.45445   3.11655 
 H                    -19.19331  -14.64439   2.01568 
 
 ITRead=  0  0  0  0  0  0  0  0  0  0  0  0  0  0  0  0  0  0  0  0
 ITRead=  0  0  0  0  0  0  0  0  0  0  0  0  0  0  0  0  0  0  0  0
 ITRead=  0  0  0  0  0  0  0  0  0  0  0  0  0  0  0  0
 MicOpt= -1 -1 -1 -1 -1 -1 -1 -1 -1 -1 -1 -1 -1 -1 -1 -1 -1 -1 -1 -1
 MicOpt= -1 -1 -1 -1 -1 -1 -1 -1 -1 -1 -1 -1 -1 -1 -1 -1 -1 -1 -1 -1
 MicOpt= -1 -1 -1 -1 -1 -1 -1 -1 -1 -1 -1 -1 -1 -1 -1 -1
 NAtoms=     56 NQM=       56 NQMF=       0 NMMI=      0 NMMIF=      0
                NMic=       0 NMicF=      0.
                    Isotopes and Nuclear Properties:
 (Nuclear quadrupole moments (NQMom) in fm**2, nuclear magnetic moments (NMagM)
  in nuclear magnetons)

  Atom         1           2           3           4           5           6           7           8           9          10
 IAtWgt=          12          12          12          12          12          12           1           1          12          12
 AtmWgt=  12.0000000  12.0000000  12.0000000  12.0000000  12.0000000  12.0000000   1.0078250   1.0078250  12.0000000  12.0000000
 NucSpn=           0           0           0           0           0           0           1           1           0           0
 AtZEff=  -0.0000000  -0.0000000  -0.0000000  -0.0000000  -0.0000000  -0.0000000  -0.0000000  -0.0000000  -0.0000000  -0.0000000
 NQMom=    0.0000000   0.0000000   0.0000000   0.0000000   0.0000000   0.0000000   0.0000000   0.0000000   0.0000000   0.0000000
 NMagM=    0.0000000   0.0000000   0.0000000   0.0000000   0.0000000   0.0000000   2.7928460   2.7928460   0.0000000   0.0000000
 AtZNuc=   6.0000000   6.0000000   6.0000000   6.0000000   6.0000000   6.0000000   1.0000000   1.0000000   6.0000000   6.0000000

  Atom        11          12          13          14          15          16          17          18          19          20
 IAtWgt=           1           1          12          12          12          12          12          12           1           1
 AtmWgt=   1.0078250   1.0078250  12.0000000  12.0000000  12.0000000  12.0000000  12.0000000  12.0000000   1.0078250   1.0078250
 NucSpn=           1           1           0           0           0           0           0           0           1           1
 AtZEff=  -0.0000000  -0.0000000  -0.0000000  -0.0000000  -0.0000000  -0.0000000  -0.0000000  -0.0000000  -0.0000000  -0.0000000
 NQMom=    0.0000000   0.0000000   0.0000000   0.0000000   0.0000000   0.0000000   0.0000000   0.0000000   0.0000000   0.0000000
 NMagM=    2.7928460   2.7928460   0.0000000   0.0000000   0.0000000   0.0000000   0.0000000   0.0000000   2.7928460   2.7928460
 AtZNuc=   1.0000000   1.0000000   6.0000000   6.0000000   6.0000000   6.0000000   6.0000000   6.0000000   1.0000000   1.0000000

  Atom        21          22          23          24          25          26          27          28          29          30
 IAtWgt=           1           1           1           1          12          12          12           1           1           1
 AtmWgt=   1.0078250   1.0078250   1.0078250   1.0078250  12.0000000  12.0000000  12.0000000   1.0078250   1.0078250   1.0078250
 NucSpn=           1           1           1           1           0           0           0           1           1           1
 AtZEff=  -0.0000000  -0.0000000  -0.0000000  -0.0000000  -0.0000000  -0.0000000  -0.0000000  -0.0000000  -0.0000000  -0.0000000
 NQMom=    0.0000000   0.0000000   0.0000000   0.0000000   0.0000000   0.0000000   0.0000000   0.0000000   0.0000000   0.0000000
 NMagM=    2.7928460   2.7928460   2.7928460   2.7928460   0.0000000   0.0000000   0.0000000   2.7928460   2.7928460   2.7928460
 AtZNuc=   1.0000000   1.0000000   1.0000000   1.0000000   6.0000000   6.0000000   6.0000000   1.0000000   1.0000000   1.0000000

  Atom        31          32          33          34          35          36          37          38          39          40
 IAtWgt=           1           1          12           1           1           1           1          12           1           1
 AtmWgt=   1.0078250   1.0078250  12.0000000   1.0078250   1.0078250   1.0078250   1.0078250  12.0000000   1.0078250   1.0078250
 NucSpn=           1           1           0           1           1           1           1           0           1           1
 AtZEff=  -0.0000000  -0.0000000  -0.0000000  -0.0000000  -0.0000000  -0.0000000  -0.0000000  -0.0000000  -0.0000000  -0.0000000
 NQMom=    0.0000000   0.0000000   0.0000000   0.0000000   0.0000000   0.0000000   0.0000000   0.0000000   0.0000000   0.0000000
 NMagM=    2.7928460   2.7928460   0.0000000   2.7928460   2.7928460   2.7928460   2.7928460   0.0000000   2.7928460   2.7928460
 AtZNuc=   1.0000000   1.0000000   6.0000000   1.0000000   1.0000000   1.0000000   1.0000000   6.0000000   1.0000000   1.0000000

  Atom        41          42          43          44          45          46          47          48          49          50
 IAtWgt=          12           1           1          12           1           1          12           1          12           1
 AtmWgt=  12.0000000   1.0078250   1.0078250  12.0000000   1.0078250   1.0078250  12.0000000   1.0078250  12.0000000   1.0078250
 NucSpn=           0           1           1           0           1           1           0           1           0           1
 AtZEff=  -0.0000000  -0.0000000  -0.0000000  -0.0000000  -0.0000000  -0.0000000  -0.0000000  -0.0000000  -0.0000000  -0.0000000
 NQMom=    0.0000000   0.0000000   0.0000000   0.0000000   0.0000000   0.0000000   0.0000000   0.0000000   0.0000000   0.0000000
 NMagM=    0.0000000   2.7928460   2.7928460   0.0000000   2.7928460   2.7928460   0.0000000   2.7928460   0.0000000   2.7928460
 AtZNuc=   6.0000000   1.0000000   1.0000000   6.0000000   1.0000000   1.0000000   6.0000000   1.0000000   6.0000000   1.0000000

  Atom        51          52          53          54          55          56
 IAtWgt=           1           1          12           1           1           1
 AtmWgt=   1.0078250   1.0078250  12.0000000   1.0078250   1.0078250   1.0078250
 NucSpn=           1           1           0           1           1           1
 AtZEff=  -0.0000000  -0.0000000  -0.0000000  -0.0000000  -0.0000000  -0.0000000
 NQMom=    0.0000000   0.0000000   0.0000000   0.0000000   0.0000000   0.0000000
 NMagM=    2.7928460   2.7928460   0.0000000   2.7928460   2.7928460   2.7928460
 AtZNuc=   1.0000000   1.0000000   6.0000000   1.0000000   1.0000000   1.0000000
 Leave Link  101 at Wed Nov  8 22:15:38 2023, MaxMem=  5368709120 cpu:              14.9 elap:               0.6
 (Enter /home/Data/zhangqian/application/g16/l103.exe)

 GradGradGradGradGradGradGradGradGradGradGradGradGradGradGradGradGradGrad
 Berny optimization.
 Initialization pass.
                           ----------------------------
                           !    Initial Parameters    !
                           ! (Angstroms and Degrees)  !
 --------------------------                            --------------------------
 ! Name  Definition              Value          Derivative Info.                !
 --------------------------------------------------------------------------------
 ! R1    R(1,2)                  1.3728         estimate D2E/DX2                !
 ! R2    R(1,6)                  1.416          estimate D2E/DX2                !
 ! R3    R(1,38)                 1.54           estimate D2E/DX2                !
 ! R4    R(2,3)                  1.422          estimate D2E/DX2                !
 ! R5    R(2,8)                  1.1003         estimate D2E/DX2                !
 ! R6    R(3,4)                  1.4189         estimate D2E/DX2                !
 ! R7    R(3,9)                  1.422          estimate D2E/DX2                !
 ! R8    R(4,5)                  1.4217         estimate D2E/DX2                !
 ! R9    R(4,10)                 1.4221         estimate D2E/DX2                !
 ! R10   R(5,6)                  1.3733         estimate D2E/DX2                !
 ! R11   R(5,11)                 1.1002         estimate D2E/DX2                !
 ! R12   R(6,12)                 1.1            estimate D2E/DX2                !
 ! R13   R(7,9)                  1.1003         estimate D2E/DX2                !
 ! R14   R(9,14)                 1.3729         estimate D2E/DX2                !
 ! R15   R(10,13)                1.3729         estimate D2E/DX2                !
 ! R16   R(10,25)                1.54           estimate D2E/DX2                !
 ! R17   R(13,14)                1.4162         estimate D2E/DX2                !
 ! R18   R(13,16)                1.54           estimate D2E/DX2                !
 ! R19   R(14,15)                1.54           estimate D2E/DX2                !
 ! R20   R(15,17)                1.54           estimate D2E/DX2                !
 ! R21   R(15,19)                1.07           estimate D2E/DX2                !
 ! R22   R(15,20)                1.07           estimate D2E/DX2                !
 ! R23   R(16,18)                1.54           estimate D2E/DX2                !
 ! R24   R(16,27)                1.54           estimate D2E/DX2                !
 ! R25   R(16,32)                1.07           estimate D2E/DX2                !
 ! R26   R(17,18)                1.322          estimate D2E/DX2                !
 ! R27   R(17,21)                1.07           estimate D2E/DX2                !
 ! R28   R(17,22)                1.07           estimate D2E/DX2                !
 ! R29   R(18,23)                1.07           estimate D2E/DX2                !
 ! R30   R(18,24)                1.07           estimate D2E/DX2                !
 ! R31   R(25,26)                1.54           estimate D2E/DX2                !
 ! R32   R(25,28)                1.07           estimate D2E/DX2                !
 ! R33   R(25,29)                1.07           estimate D2E/DX2                !
 ! R34   R(26,27)                1.4431         estimate D2E/DX2                !
 ! R35   R(26,33)                1.54           estimate D2E/DX2                !
 ! R36   R(26,37)                1.07           estimate D2E/DX2                !
 ! R37   R(27,30)                1.07           estimate D2E/DX2                !
 ! R38   R(27,31)                1.07           estimate D2E/DX2                !
 ! R39   R(33,34)                1.07           estimate D2E/DX2                !
 ! R40   R(33,35)                1.07           estimate D2E/DX2                !
 ! R41   R(33,36)                1.07           estimate D2E/DX2                !
 ! R42   R(38,39)                1.07           estimate D2E/DX2                !
 ! R43   R(38,40)                1.07           estimate D2E/DX2                !
 ! R44   R(38,41)                1.54           estimate D2E/DX2                !
 ! R45   R(41,42)                1.07           estimate D2E/DX2                !
 ! R46   R(41,43)                1.07           estimate D2E/DX2                !
 ! R47   R(41,44)                1.54           estimate D2E/DX2                !
 ! R48   R(44,45)                1.07           estimate D2E/DX2                !
 ! R49   R(44,46)                1.07           estimate D2E/DX2                !
 ! R50   R(44,47)                1.54           estimate D2E/DX2                !
 ! R51   R(47,48)                1.07           estimate D2E/DX2                !
 ! R52   R(47,49)                1.54           estimate D2E/DX2                !
 ! R53   R(47,53)                1.54           estimate D2E/DX2                !
 ! R54   R(49,50)                1.07           estimate D2E/DX2                !
 ! R55   R(49,51)                1.07           estimate D2E/DX2                !
 ! R56   R(49,52)                1.07           estimate D2E/DX2                !
 ! R57   R(53,54)                1.07           estimate D2E/DX2                !
 ! R58   R(53,55)                1.07           estimate D2E/DX2                !
 ! R59   R(53,56)                1.07           estimate D2E/DX2                !
 ! A1    A(2,1,6)              120.3763         estimate D2E/DX2                !
 ! A2    A(2,1,38)             120.6477         estimate D2E/DX2                !
 ! A3    A(6,1,38)             118.976          estimate D2E/DX2                !
 ! A4    A(1,2,3)              120.5099         estimate D2E/DX2                !
 ! A5    A(1,2,8)              120.8832         estimate D2E/DX2                !
 ! A6    A(3,2,8)              118.6069         estimate D2E/DX2                !
 ! A7    A(2,3,4)              119.0959         estimate D2E/DX2                !
 ! A8    A(2,3,9)              121.7004         estimate D2E/DX2                !
 ! A9    A(4,3,9)              119.2037         estimate D2E/DX2                !
 ! A10   A(3,4,5)              119.2103         estimate D2E/DX2                !
 ! A11   A(3,4,10)             119.0596         estimate D2E/DX2                !
 ! A12   A(5,4,10)             121.73           estimate D2E/DX2                !
 ! A13   A(4,5,6)              120.4559         estimate D2E/DX2                !
 ! A14   A(4,5,11)             118.6441         estimate D2E/DX2                !
 ! A15   A(6,5,11)             120.8999         estimate D2E/DX2                !
 ! A16   A(1,6,5)              120.3516         estimate D2E/DX2                !
 ! A17   A(1,6,12)             119.0027         estimate D2E/DX2                !
 ! A18   A(5,6,12)             120.6457         estimate D2E/DX2                !
 ! A19   A(3,9,7)              118.6409         estimate D2E/DX2                !
 ! A20   A(3,9,14)             120.4968         estimate D2E/DX2                !
 ! A21   A(7,9,14)             120.8623         estimate D2E/DX2                !
 ! A22   A(4,10,13)            120.5491         estimate D2E/DX2                !
 ! A23   A(4,10,25)            118.5913         estimate D2E/DX2                !
 ! A24   A(13,10,25)           120.8596         estimate D2E/DX2                !
 ! A25   A(10,13,14)           120.3669         estimate D2E/DX2                !
 ! A26   A(10,13,16)           120.6492         estimate D2E/DX2                !
 ! A27   A(14,13,16)           118.9839         estimate D2E/DX2                !
 ! A28   A(9,14,13)            120.3239         estimate D2E/DX2                !
 ! A29   A(9,14,15)            120.685          estimate D2E/DX2                !
 ! A30   A(13,14,15)           118.991          estimate D2E/DX2                !
 ! A31   A(14,15,17)           120.0            estimate D2E/DX2                !
 ! A32   A(14,15,19)           107.1877         estimate D2E/DX2                !
 ! A33   A(14,15,20)           107.1877         estimate D2E/DX2                !
 ! A34   A(17,15,19)           107.1877         estimate D2E/DX2                !
 ! A35   A(17,15,20)           107.1877         estimate D2E/DX2                !
 ! A36   A(19,15,20)           107.5431         estimate D2E/DX2                !
 ! A37   A(13,16,18)           120.0            estimate D2E/DX2                !
 ! A38   A(13,16,27)           120.0            estimate D2E/DX2                !
 ! A39   A(13,16,32)            90.0            estimate D2E/DX2                !
 ! A40   A(18,16,27)           120.0            estimate D2E/DX2                !
 ! A41   A(18,16,32)            90.0            estimate D2E/DX2                !
 ! A42   A(27,16,32)            90.0            estimate D2E/DX2                !
 ! A43   A(15,17,18)           121.0043         estimate D2E/DX2                !
 ! A44   A(15,17,21)           106.9518         estimate D2E/DX2                !
 ! A45   A(15,17,22)           106.9518         estimate D2E/DX2                !
 ! A46   A(18,17,21)           106.9518         estimate D2E/DX2                !
 ! A47   A(18,17,22)           106.9518         estimate D2E/DX2                !
 ! A48   A(21,17,22)           107.3811         estimate D2E/DX2                !
 ! A49   A(16,18,17)           121.0146         estimate D2E/DX2                !
 ! A50   A(16,18,23)           106.9494         estimate D2E/DX2                !
 ! A51   A(16,18,24)           106.9494         estimate D2E/DX2                !
 ! A52   A(17,18,23)           106.9494         estimate D2E/DX2                !
 ! A53   A(17,18,24)           106.9494         estimate D2E/DX2                !
 ! A54   A(23,18,24)           107.3794         estimate D2E/DX2                !
 ! A55   A(10,25,26)           120.0            estimate D2E/DX2                !
 ! A56   A(10,25,28)           107.1877         estimate D2E/DX2                !
 ! A57   A(10,25,29)           107.1877         estimate D2E/DX2                !
 ! A58   A(26,25,28)           107.1877         estimate D2E/DX2                !
 ! A59   A(26,25,29)           107.1877         estimate D2E/DX2                !
 ! A60   A(28,25,29)           107.5431         estimate D2E/DX2                !
 ! A61   A(25,26,27)           119.1455         estimate D2E/DX2                !
 ! A62   A(25,26,33)           120.4273         estimate D2E/DX2                !
 ! A63   A(25,26,37)            90.084          estimate D2E/DX2                !
 ! A64   A(27,26,33)           120.4273         estimate D2E/DX2                !
 ! A65   A(27,26,37)            90.084          estimate D2E/DX2                !
 ! A66   A(33,26,37)            89.8342         estimate D2E/DX2                !
 ! A67   A(16,27,26)           119.3457         estimate D2E/DX2                !
 ! A68   A(16,27,30)           107.3398         estimate D2E/DX2                !
 ! A69   A(16,27,31)           107.3398         estimate D2E/DX2                !
 ! A70   A(26,27,30)           107.3398         estimate D2E/DX2                !
 ! A71   A(26,27,31)           107.3398         estimate D2E/DX2                !
 ! A72   A(30,27,31)           107.6509         estimate D2E/DX2                !
 ! A73   A(26,33,34)           109.4712         estimate D2E/DX2                !
 ! A74   A(26,33,35)           109.4712         estimate D2E/DX2                !
 ! A75   A(26,33,36)           109.4712         estimate D2E/DX2                !
 ! A76   A(34,33,35)           109.4713         estimate D2E/DX2                !
 ! A77   A(34,33,36)           109.4712         estimate D2E/DX2                !
 ! A78   A(35,33,36)           109.4712         estimate D2E/DX2                !
 ! A79   A(1,38,39)            109.4712         estimate D2E/DX2                !
 ! A80   A(1,38,40)            109.4712         estimate D2E/DX2                !
 ! A81   A(1,38,41)            109.4712         estimate D2E/DX2                !
 ! A82   A(39,38,40)           109.4713         estimate D2E/DX2                !
 ! A83   A(39,38,41)           109.4712         estimate D2E/DX2                !
 ! A84   A(40,38,41)           109.4712         estimate D2E/DX2                !
 ! A85   A(38,41,42)           109.4712         estimate D2E/DX2                !
 ! A86   A(38,41,43)           109.4712         estimate D2E/DX2                !
 ! A87   A(38,41,44)           109.4712         estimate D2E/DX2                !
 ! A88   A(42,41,43)           109.4712         estimate D2E/DX2                !
 ! A89   A(42,41,44)           109.4713         estimate D2E/DX2                !
 ! A90   A(43,41,44)           109.4712         estimate D2E/DX2                !
 ! A91   A(41,44,45)           109.4712         estimate D2E/DX2                !
 ! A92   A(41,44,46)           109.4712         estimate D2E/DX2                !
 ! A93   A(41,44,47)           109.4712         estimate D2E/DX2                !
 ! A94   A(45,44,46)           109.4712         estimate D2E/DX2                !
 ! A95   A(45,44,47)           109.4713         estimate D2E/DX2                !
 ! A96   A(46,44,47)           109.4712         estimate D2E/DX2                !
 ! A97   A(44,47,48)           109.4712         estimate D2E/DX2                !
 ! A98   A(44,47,49)           109.4712         estimate D2E/DX2                !
 ! A99   A(44,47,53)           109.4712         estimate D2E/DX2                !
 ! A100  A(48,47,49)           109.4712         estimate D2E/DX2                !
 ! A101  A(48,47,53)           109.4712         estimate D2E/DX2                !
 ! A102  A(49,47,53)           109.4713         estimate D2E/DX2                !
 ! A103  A(47,49,50)           109.4712         estimate D2E/DX2                !
 ! A104  A(47,49,51)           109.4712         estimate D2E/DX2                !
 ! A105  A(47,49,52)           109.4712         estimate D2E/DX2                !
 ! A106  A(50,49,51)           109.4713         estimate D2E/DX2                !
 ! A107  A(50,49,52)           109.4712         estimate D2E/DX2                !
 ! A108  A(51,49,52)           109.4712         estimate D2E/DX2                !
 ! A109  A(47,53,54)           109.4712         estimate D2E/DX2                !
 ! A110  A(47,53,55)           109.4712         estimate D2E/DX2                !
 ! A111  A(47,53,56)           109.4712         estimate D2E/DX2                !
 ! A112  A(54,53,55)           109.4713         estimate D2E/DX2                !
 ! A113  A(54,53,56)           109.4712         estimate D2E/DX2                !
 ! A114  A(55,53,56)           109.4712         estimate D2E/DX2                !
 ! D1    D(6,1,2,3)             -0.011          estimate D2E/DX2                !
 ! D2    D(6,1,2,8)           -179.9971         estimate D2E/DX2                !
 ! D3    D(38,1,2,3)           179.9952         estimate D2E/DX2                !
 ! D4    D(38,1,2,8)             0.009          estimate D2E/DX2                !
 ! D5    D(2,1,6,5)             -0.0029         estimate D2E/DX2                !
 ! D6    D(2,1,6,12)          -179.9936         estimate D2E/DX2                !
 ! D7    D(38,1,6,5)           179.991          estimate D2E/DX2                !
 ! D8    D(38,1,6,12)            0.0003         estimate D2E/DX2                !
 ! D9    D(2,1,38,39)           93.7734         estimate D2E/DX2                !
 ! D10   D(2,1,38,40)         -146.2266         estimate D2E/DX2                !
 ! D11   D(2,1,38,41)          -26.2266         estimate D2E/DX2                !
 ! D12   D(6,1,38,39)          -86.2206         estimate D2E/DX2                !
 ! D13   D(6,1,38,40)           33.7794         estimate D2E/DX2                !
 ! D14   D(6,1,38,41)          153.7794         estimate D2E/DX2                !
 ! D15   D(1,2,3,4)              0.0171         estimate D2E/DX2                !
 ! D16   D(1,2,3,9)           -179.9875         estimate D2E/DX2                !
 ! D17   D(8,2,3,4)           -179.9964         estimate D2E/DX2                !
 ! D18   D(8,2,3,9)             -0.0011         estimate D2E/DX2                !
 ! D19   D(2,3,4,5)             -0.0096         estimate D2E/DX2                !
 ! D20   D(2,3,4,10)           179.9947         estimate D2E/DX2                !
 ! D21   D(9,3,4,5)            179.995          estimate D2E/DX2                !
 ! D22   D(9,3,4,10)            -0.0008         estimate D2E/DX2                !
 ! D23   D(2,3,9,7)             -0.0135         estimate D2E/DX2                !
 ! D24   D(2,3,9,14)          -179.9995         estimate D2E/DX2                !
 ! D25   D(4,3,9,7)            179.9818         estimate D2E/DX2                !
 ! D26   D(4,3,9,14)            -0.0042         estimate D2E/DX2                !
 ! D27   D(3,4,5,6)             -0.004          estimate D2E/DX2                !
 ! D28   D(3,4,5,11)          -179.9878         estimate D2E/DX2                !
 ! D29   D(10,4,5,6)           179.9916         estimate D2E/DX2                !
 ! D30   D(10,4,5,11)            0.0078         estimate D2E/DX2                !
 ! D31   D(3,4,10,13)            0.0014         estimate D2E/DX2                !
 ! D32   D(3,4,10,25)          179.9984         estimate D2E/DX2                !
 ! D33   D(5,4,10,13)         -179.9942         estimate D2E/DX2                !
 ! D34   D(5,4,10,25)            0.0027         estimate D2E/DX2                !
 ! D35   D(4,5,6,1)              0.0104         estimate D2E/DX2                !
 ! D36   D(4,5,6,12)          -179.999          estimate D2E/DX2                !
 ! D37   D(11,5,6,1)           179.9938         estimate D2E/DX2                !
 ! D38   D(11,5,6,12)           -0.0156         estimate D2E/DX2                !
 ! D39   D(3,9,14,13)            0.0084         estimate D2E/DX2                !
 ! D40   D(3,9,14,15)          179.9987         estimate D2E/DX2                !
 ! D41   D(7,9,14,13)         -179.9773         estimate D2E/DX2                !
 ! D42   D(7,9,14,15)            0.013          estimate D2E/DX2                !
 ! D43   D(4,10,13,14)           0.0027         estimate D2E/DX2                !
 ! D44   D(4,10,13,16)         179.9839         estimate D2E/DX2                !
 ! D45   D(25,10,13,14)       -179.9941         estimate D2E/DX2                !
 ! D46   D(25,10,13,16)         -0.013          estimate D2E/DX2                !
 ! D47   D(4,10,25,26)         179.9898         estimate D2E/DX2                !
 ! D48   D(4,10,25,28)         -57.6152         estimate D2E/DX2                !
 ! D49   D(4,10,25,29)          57.5949         estimate D2E/DX2                !
 ! D50   D(13,10,25,26)         -0.0133         estimate D2E/DX2                !
 ! D51   D(13,10,25,28)        122.3817         estimate D2E/DX2                !
 ! D52   D(13,10,25,29)       -122.4082         estimate D2E/DX2                !
 ! D53   D(10,13,14,9)          -0.0078         estimate D2E/DX2                !
 ! D54   D(10,13,14,15)       -179.9982         estimate D2E/DX2                !
 ! D55   D(16,13,14,9)        -179.9892         estimate D2E/DX2                !
 ! D56   D(16,13,14,15)          0.0203         estimate D2E/DX2                !
 ! D57   D(10,13,16,18)        179.9868         estimate D2E/DX2                !
 ! D58   D(10,13,16,27)         -0.0132         estimate D2E/DX2                !
 ! D59   D(10,13,16,32)         89.9868         estimate D2E/DX2                !
 ! D60   D(14,13,16,18)         -0.0319         estimate D2E/DX2                !
 ! D61   D(14,13,16,27)        179.9681         estimate D2E/DX2                !
 ! D62   D(14,13,16,32)        -90.0319         estimate D2E/DX2                !
 ! D63   D(9,14,15,17)         179.5997         estimate D2E/DX2                !
 ! D64   D(9,14,15,19)         -58.0054         estimate D2E/DX2                !
 ! D65   D(9,14,15,20)          57.2047         estimate D2E/DX2                !
 ! D66   D(13,14,15,17)         -0.4099         estimate D2E/DX2                !
 ! D67   D(13,14,15,19)        121.9851         estimate D2E/DX2                !
 ! D68   D(13,14,15,20)       -122.8048         estimate D2E/DX2                !
 ! D69   D(14,15,17,18)          0.8903         estimate D2E/DX2                !
 ! D70   D(14,15,17,21)        123.4923         estimate D2E/DX2                !
 ! D71   D(14,15,17,22)       -121.7116         estimate D2E/DX2                !
 ! D72   D(19,15,17,18)       -121.5046         estimate D2E/DX2                !
 ! D73   D(19,15,17,21)          1.0974         estimate D2E/DX2                !
 ! D74   D(19,15,17,22)        115.8934         estimate D2E/DX2                !
 ! D75   D(20,15,17,18)        123.2853         estimate D2E/DX2                !
 ! D76   D(20,15,17,21)       -114.1128         estimate D2E/DX2                !
 ! D77   D(20,15,17,22)          0.6833         estimate D2E/DX2                !
 ! D78   D(13,16,18,17)          0.5046         estimate D2E/DX2                !
 ! D79   D(13,16,18,23)        123.1087         estimate D2E/DX2                !
 ! D80   D(13,16,18,24)       -122.0994         estimate D2E/DX2                !
 ! D81   D(27,16,18,17)       -179.4954         estimate D2E/DX2                !
 ! D82   D(27,16,18,23)        -56.8913         estimate D2E/DX2                !
 ! D83   D(27,16,18,24)         57.9006         estimate D2E/DX2                !
 ! D84   D(32,16,18,17)         90.5046         estimate D2E/DX2                !
 ! D85   D(32,16,18,23)       -146.8913         estimate D2E/DX2                !
 ! D86   D(32,16,18,24)        -32.0994         estimate D2E/DX2                !
 ! D87   D(13,16,27,26)          0.0687         estimate D2E/DX2                !
 ! D88   D(13,16,27,30)        122.3266         estimate D2E/DX2                !
 ! D89   D(13,16,27,31)       -122.1892         estimate D2E/DX2                !
 ! D90   D(18,16,27,26)       -179.9313         estimate D2E/DX2                !
 ! D91   D(18,16,27,30)        -57.6734         estimate D2E/DX2                !
 ! D92   D(18,16,27,31)         57.8108         estimate D2E/DX2                !
 ! D93   D(32,16,27,26)        -89.9313         estimate D2E/DX2                !
 ! D94   D(32,16,27,30)         32.3266         estimate D2E/DX2                !
 ! D95   D(32,16,27,31)        147.8108         estimate D2E/DX2                !
 ! D96   D(15,17,18,16)         -0.9124         estimate D2E/DX2                !
 ! D97   D(15,17,18,23)       -123.5165         estimate D2E/DX2                !
 ! D98   D(15,17,18,24)        121.6916         estimate D2E/DX2                !
 ! D99   D(21,17,18,16)       -123.5144         estimate D2E/DX2                !
 ! D100  D(21,17,18,23)        113.8816         estimate D2E/DX2                !
 ! D101  D(21,17,18,24)         -0.9103         estimate D2E/DX2                !
 ! D102  D(22,17,18,16)        121.6895         estimate D2E/DX2                !
 ! D103  D(22,17,18,23)         -0.9145         estimate D2E/DX2                !
 ! D104  D(22,17,18,24)       -115.7064         estimate D2E/DX2                !
 ! D105  D(10,25,26,27)          0.0686         estimate D2E/DX2                !
 ! D106  D(10,25,26,33)       -179.9314         estimate D2E/DX2                !
 ! D107  D(10,25,26,37)        -90.0744         estimate D2E/DX2                !
 ! D108  D(28,25,26,27)       -122.3264         estimate D2E/DX2                !
 ! D109  D(28,25,26,33)         57.6736         estimate D2E/DX2                !
 ! D110  D(28,25,26,37)        147.5307         estimate D2E/DX2                !
 ! D111  D(29,25,26,27)        122.4635         estimate D2E/DX2                !
 ! D112  D(29,25,26,33)        -57.5365         estimate D2E/DX2                !
 ! D113  D(29,25,26,37)         32.3206         estimate D2E/DX2                !
 ! D114  D(25,26,27,16)         -0.0936         estimate D2E/DX2                !
 ! D115  D(25,26,27,30)       -122.3515         estimate D2E/DX2                !
 ! D116  D(25,26,27,31)        122.1643         estimate D2E/DX2                !
 ! D117  D(33,26,27,16)        179.9064         estimate D2E/DX2                !
 ! D118  D(33,26,27,30)         57.6485         estimate D2E/DX2                !
 ! D119  D(33,26,27,31)        -57.8357         estimate D2E/DX2                !
 ! D120  D(37,26,27,16)         90.0494         estimate D2E/DX2                !
 ! D121  D(37,26,27,30)        -32.2085         estimate D2E/DX2                !
 ! D122  D(37,26,27,31)       -147.6927         estimate D2E/DX2                !
 ! D123  D(25,26,33,34)        -59.5224         estimate D2E/DX2                !
 ! D124  D(25,26,33,35)         60.4776         estimate D2E/DX2                !
 ! D125  D(25,26,33,36)       -179.5224         estimate D2E/DX2                !
 ! D126  D(27,26,33,34)        120.4776         estimate D2E/DX2                !
 ! D127  D(27,26,33,35)       -119.5224         estimate D2E/DX2                !
 ! D128  D(27,26,33,36)          0.4776         estimate D2E/DX2                !
 ! D129  D(37,26,33,34)       -149.5224         estimate D2E/DX2                !
 ! D130  D(37,26,33,35)        -29.5224         estimate D2E/DX2                !
 ! D131  D(37,26,33,36)         90.4776         estimate D2E/DX2                !
 ! D132  D(1,38,41,42)          70.5677         estimate D2E/DX2                !
 ! D133  D(1,38,41,43)         -49.4323         estimate D2E/DX2                !
 ! D134  D(1,38,41,44)        -169.4323         estimate D2E/DX2                !
 ! D135  D(39,38,41,42)        -49.4323         estimate D2E/DX2                !
 ! D136  D(39,38,41,43)       -169.4323         estimate D2E/DX2                !
 ! D137  D(39,38,41,44)         70.5677         estimate D2E/DX2                !
 ! D138  D(40,38,41,42)       -169.4323         estimate D2E/DX2                !
 ! D139  D(40,38,41,43)         70.5677         estimate D2E/DX2                !
 ! D140  D(40,38,41,44)        -49.4323         estimate D2E/DX2                !
 ! D141  D(38,41,44,45)        -56.2046         estimate D2E/DX2                !
 ! D142  D(38,41,44,46)         63.7954         estimate D2E/DX2                !
 ! D143  D(38,41,44,47)       -176.2046         estimate D2E/DX2                !
 ! D144  D(42,41,44,45)         63.7954         estimate D2E/DX2                !
 ! D145  D(42,41,44,46)       -176.2047         estimate D2E/DX2                !
 ! D146  D(42,41,44,47)        -56.2047         estimate D2E/DX2                !
 ! D147  D(43,41,44,45)       -176.2046         estimate D2E/DX2                !
 ! D148  D(43,41,44,46)        -56.2046         estimate D2E/DX2                !
 ! D149  D(43,41,44,47)         63.7954         estimate D2E/DX2                !
 ! D150  D(41,44,47,48)        -60.202          estimate D2E/DX2                !
 ! D151  D(41,44,47,49)        179.798          estimate D2E/DX2                !
 ! D152  D(41,44,47,53)         59.798          estimate D2E/DX2                !
 ! D153  D(45,44,47,48)        179.798          estimate D2E/DX2                !
 ! D154  D(45,44,47,49)         59.798          estimate D2E/DX2                !
 ! D155  D(45,44,47,53)        -60.202          estimate D2E/DX2                !
 ! D156  D(46,44,47,48)         59.798          estimate D2E/DX2                !
 ! D157  D(46,44,47,49)        -60.202          estimate D2E/DX2                !
 ! D158  D(46,44,47,53)        179.798          estimate D2E/DX2                !
 ! D159  D(44,47,49,50)       -179.8307         estimate D2E/DX2                !
 ! D160  D(44,47,49,51)        -59.8307         estimate D2E/DX2                !
 ! D161  D(44,47,49,52)         60.1693         estimate D2E/DX2                !
 ! D162  D(48,47,49,50)         60.1693         estimate D2E/DX2                !
 ! D163  D(48,47,49,51)       -179.8307         estimate D2E/DX2                !
 ! D164  D(48,47,49,52)        -59.8307         estimate D2E/DX2                !
 ! D165  D(53,47,49,50)        -59.8307         estimate D2E/DX2                !
 ! D166  D(53,47,49,51)         60.1693         estimate D2E/DX2                !
 ! D167  D(53,47,49,52)       -179.8307         estimate D2E/DX2                !
 ! D168  D(44,47,53,54)        -87.8229         estimate D2E/DX2                !
 ! D169  D(44,47,53,55)         32.1771         estimate D2E/DX2                !
 ! D170  D(44,47,53,56)        152.1771         estimate D2E/DX2                !
 ! D171  D(48,47,53,54)         32.1771         estimate D2E/DX2                !
 ! D172  D(48,47,53,55)        152.1771         estimate D2E/DX2                !
 ! D173  D(48,47,53,56)        -87.8229         estimate D2E/DX2                !
 ! D174  D(49,47,53,54)        152.1771         estimate D2E/DX2                !
 ! D175  D(49,47,53,55)        -87.8229         estimate D2E/DX2                !
 ! D176  D(49,47,53,56)         32.1771         estimate D2E/DX2                !
 --------------------------------------------------------------------------------
 Trust Radius=3.00D-01 FncErr=1.00D-07 GrdErr=1.00D-06 EigMax=2.50D+02 EigMin=1.00D-04
 Number of steps in this run=    336 maximum allowed number of steps=    336.
 GradGradGradGradGradGradGradGradGradGradGradGradGradGradGradGradGradGrad

 Leave Link  103 at Wed Nov  8 22:15:38 2023, MaxMem=  5368709120 cpu:               0.3 elap:               0.0
 (Enter /home/Data/zhangqian/application/g16/l202.exe)
 Stoichiometry    C24H32
 Framework group  C1[X(C24H32)]
 Deg. of freedom   162
 Full point group                 C1      NOp   1
 Largest Abelian subgroup         C1      NOp   1
 Largest concise Abelian subgroup C1      NOp   1
                         Standard orientation:                         
 ---------------------------------------------------------------------
 Center     Atomic      Atomic             Coordinates (Angstroms)
 Number     Number       Type             X           Y           Z
 ---------------------------------------------------------------------
      1          6           0       -2.008368   -1.270155   -0.377503
      2          6           0       -1.501773    0.005635   -0.360088
      3          6           0       -0.102166    0.225032   -0.237273
      4          6           0        0.764990   -0.893179   -0.133208
      5          6           0        0.213299   -2.203327   -0.154118
      6          6           0       -1.142613   -2.385853   -0.273486
      7          1           0       -0.231115    2.395863   -0.297863
      8          1           0       -2.166838    0.878552   -0.440303
      9          6           0        0.449786    1.535408   -0.216235
     10          6           0        2.164541   -0.672885   -0.010533
     11          1           0        0.894201   -3.063668   -0.072595
     12          1           0       -1.572784   -3.398067   -0.289983
     13          6           0        2.671197    0.602942    0.007160
     14          6           0        1.805172    1.718701   -0.096657
     15          6           0        2.407553    3.135810   -0.073435
     16          6           0        4.186350    0.844169    0.140281
     17          6           0        3.929289    3.323369    0.070586
     18          6           0        4.738541    2.281654    0.158201
     19          1           0        2.113974    3.619097   -0.981810
     20          1           0        1.946095    3.662314    0.735731
     21          1           0        4.253458    3.900410   -0.770150
     22          1           0        4.088957    3.916990    0.946383
     23          1           0        5.291728    2.391998    1.067436
     24          1           0        5.434650    2.358516   -0.650764
     25          6           0        3.095796   -1.894262    0.101721
     26          6           0        4.616725   -1.693171    0.235654
     27          6           0        5.149311   -0.352090    0.255482
     28          1           0        2.775425   -2.459042    0.952183
     29          1           0        2.931888   -2.497710   -0.766544
     30          1           0        5.850629   -0.275552   -0.549002
     31          1           0        5.691712   -0.237866    1.170716
     32          1           0        4.283789    0.820018   -0.924999
     33          6           0        5.557186   -2.907559    0.346993
     34          1           0        5.293810   -3.484834    1.208553
     35          1           0        5.463363   -3.512947   -0.530276
     36          1           0        6.567821   -2.568657    0.440061
     37          1           0        4.715433   -1.718311   -0.829487
     38          6           0       -3.523548   -1.511409   -0.510262
     39          1           0       -3.772826   -1.655456   -1.540802
     40          1           0       -3.796227   -2.382677    0.047804
     41          6           0       -4.287501   -0.291370    0.036985
     42          1           0       -4.160312    0.536912   -0.628351
     43          1           0       -3.905110   -0.034971    1.002872
     44          6           0       -5.784867   -0.632459    0.151666
     45          1           0       -6.151756   -0.952519   -0.801148
     46          1           0       -5.918209   -1.416903    0.867045
     47          6           0       -6.562276    0.616110    0.608074
     48          1           0       -6.197780    0.934090    1.562502
     49          6           0       -8.060319    0.276386    0.717867
     50          1           0       -8.600855    1.144692    1.032136
     51          1           0       -8.424126   -0.044413   -0.235879
     52          1           0       -8.196824   -0.507163    1.433631
     53          6           0       -6.366243    1.746751   -0.418972
     54          1           0       -5.487808    2.305235   -0.171290
     55          1           0       -6.257318    1.325639   -1.396571
     56          1           0       -7.217400    2.394953   -0.402651
 ---------------------------------------------------------------------
 Rotational constants (GHZ):           0.4914230           0.0914559           0.0783134
 Leave Link  202 at Wed Nov  8 22:15:38 2023, MaxMem=  5368709120 cpu:               0.0 elap:               0.0
 (Enter /home/Data/zhangqian/application/g16/l301.exe)
 Standard basis: 6-31G(d) (6D, 7F)
 Ernie: Thresh=  0.10000D-02 Tol=  0.10000D-05 Strict=F.
 There are   424 symmetry adapted cartesian basis functions of A   symmetry.
 There are   424 symmetry adapted basis functions of A   symmetry.
   424 basis functions,   800 primitive gaussians,   424 cartesian basis functions
    88 alpha electrons       88 beta electrons
       nuclear repulsion energy      1971.5665497567 Hartrees.
 IExCor=  402 DFT=T Ex+Corr=B3LYP ExCW=0 ScaHFX=  0.200000
 ScaDFX=  0.800000  0.720000  1.000000  0.810000 ScalE2=  1.000000  1.000000
 IRadAn=      5 IRanWt=     -1 IRanGd=            0 ICorTp=0 IEmpDi=131
 NAtoms=   56 NActive=   56 NUniq=   56 SFac= 1.00D+00 NAtFMM=   60 NAOKFM=F Big=F
 Integral buffers will be    131072 words long.
 Raffenetti 2 integral format.
 Two-electron integral symmetry is turned on.
 R6Disp:  Grimme-D3 Dispersion energy=       -0.0546331046 Hartrees.
 Nuclear repulsion after empirical dispersion term =     1971.5119166521 Hartrees.
 ------------------------------------------------------------------------------
 Polarizable Continuum Model (PCM)
 =================================
 Model                : PCM.
 Atomic radii         : UFF (Universal Force Field).
 Polarization charges : Total charges.
 Charge compensation  : None.
 Solution method      : On-the-fly selection.
 Cavity type          : Scaled VdW (van der Waals Surface) (Alpha=1.100).
 Cavity algorithm     : GePol (No added spheres)
                        Default sphere list used, NSphG=   56.
                        Lebedev-Laikov grids with approx.  5.0 points / Ang**2.
                        Smoothing algorithm: York/Karplus (Gamma=1.0000).
                        Polarization charges: spherical gaussians, with
                                              point-specific exponents (IZeta= 3).
                        Self-potential: point-specific (ISelfS= 7).
                        Self-field    : sphere-specific E.n sum rule (ISelfD= 2).
 1st derivatives      : Analytical E(r).r(x)/FMM algorithm (CHGder, D1EAlg=3).
                        Cavity 1st derivative terms included.
 Solvent              : Water, Eps=  78.355300 Eps(inf)=   1.777849
 ------------------------------------------------------------------------------
 GePol: Number of generator spheres                  =      56
 GePol: Total number of spheres                      =      56
 GePol: Number of exposed spheres                    =      56 (100.00%)
 GePol: Number of points                             =    3476
 GePol: Average weight of points                     =       0.13
 GePol: Minimum weight of points                     =   0.38D-10
 GePol: Maximum weight of points                     =    0.20577
 GePol: Number of points with low weight             =     250
 GePol: Fraction of low-weight points (<1% of avg)   =       7.19%
 GePol: Cavity surface area                          =    448.016 Ang**2
 GePol: Cavity volume                                =    501.230 Ang**3
 Leave Link  301 at Wed Nov  8 22:15:38 2023, MaxMem=  5368709120 cpu:               1.3 elap:               0.1
 (Enter /home/Data/zhangqian/application/g16/l302.exe)
 NPDir=0 NMtPBC=     1 NCelOv=     1 NCel=       1 NClECP=     1 NCelD=      1
         NCelK=      1 NCelE2=     1 NClLst=     1 CellRange=     0.0.
 One-electron integrals computed using PRISM.
 One-electron integral symmetry used in STVInt
 NBasis=   424 RedAO= T EigKep=  1.96D-04  NBF=   424
 NBsUse=   424 1.00D-06 EigRej= -1.00D+00 NBFU=   424
 Precomputing XC quadrature grid using
 IXCGrd= 4 IRadAn=           5 IRanWt=          -1 IRanGd=           0 AccXCQ= 0.00D+00.
 Generated NRdTot=       0 NPtTot=           0 NUsed=           0 NTot=          32
 NSgBfM=   416   416   416   416   416 MxSgAt=    56 MxSgA2=    56.
 Leave Link  302 at Wed Nov  8 22:15:39 2023, MaxMem=  5368709120 cpu:              10.6 elap:               0.4
 (Enter /home/Data/zhangqian/application/g16/l303.exe)
 DipDrv:  MaxL=1.
 Leave Link  303 at Wed Nov  8 22:15:39 2023, MaxMem=  5368709120 cpu:               1.3 elap:               0.1
 (Enter /home/Data/zhangqian/application/g16/l401.exe)
 ExpMin= 1.61D-01 ExpMax= 3.05D+03 ExpMxC= 4.57D+02 IAcc=3 IRadAn=         5 AccDes= 0.00D+00
 Harris functional with IExCor=  402 and IRadAn=       5 diagonalized for initial guess.
 HarFok:  IExCor=  402 AccDes= 0.00D+00 IRadAn=         5 IDoV= 1 UseB2=F ITyADJ=14
 ICtDFT=  3500011 ScaDFX=  1.000000  1.000000  1.000000  1.000000
 FoFCou: FMM=F IPFlag=           0 FMFlag=      100000 FMFlg1=           0
         NFxFlg=           0 DoJE=T BraDBF=F KetDBF=T FulRan=T
         wScrn=  0.000000 ICntrl=       500 IOpCl=  0 I1Cent=   200000004 NGrid=           0
         NMat0=    1 NMatS0=      1 NMatT0=    0 NMatD0=    1 NMtDS0=    0 NMtDT0=    0
 Petite list used in FoFCou.
 Harris En= -933.914129537798    
 JPrj=0 DoOrth=F DoCkMO=F.
 Leave Link  401 at Wed Nov  8 22:15:40 2023, MaxMem=  5368709120 cpu:              28.3 elap:               1.2
 (Enter /home/Data/zhangqian/application/g16/l502.exe)
 Integral symmetry usage will be decided dynamically.
 Closed shell SCF:
 Using DIIS extrapolation, IDIIS=  1040.
 NGot=  5368709120 LenX=  5368334356 LenY=  5368154139
 Requested convergence on RMS density matrix=1.00D-08 within 128 cycles.
 Requested convergence on MAX density matrix=1.00D-06.
 Requested convergence on             energy=1.00D-06.
 No special actions if energy rises.
 Fock matrices will be formed incrementally for  20 cycles.

 Cycle   1  Pass 1  IDiag  1:
 FoFJK:  IHMeth= 1 ICntrl=       0 DoSepK=F KAlg= 0 I1Cent=           0 FoldK=F
 IRaf= 650000000 NMat=       1 IRICut=       1 DoRegI=T DoRafI=F ISym2E= 0 IDoP0=0 IntGTp=1.
 FoFCou: FMM=F IPFlag=           0 FMFlag=      100000 FMFlg1=           0
         NFxFlg=           0 DoJE=F BraDBF=F KetDBF=F FulRan=T
         wScrn=  0.000000 ICntrl=         0 IOpCl=  0 I1Cent=           0 NGrid=           0
         NMat0=    1 NMatS0=      1 NMatT0=    0 NMatD0=    1 NMtDS0=    0 NMtDT0=    0
 Symmetry not used in FoFCou.
 Inv3:  Mode=1 IEnd=    36247728.
 Iteration    1 A*A^-1 deviation from unit magnitude is 3.55D-15 for   2414.
 Iteration    1 A*A^-1 deviation from orthogonality  is 2.44D-15 for   3065    242.
 Iteration    1 A^-1*A deviation from unit magnitude is 3.77D-15 for   2414.
 Iteration    1 A^-1*A deviation from orthogonality  is 2.00D-15 for   2937    562.
 E= -932.987475278769    
 DIIS: error= 3.73D-02 at cycle   1 NSaved=   1.
 NSaved= 1 IEnMin= 1 EnMin= -932.987475278769     IErMin= 1 ErrMin= 3.73D-02
 ErrMax= 3.73D-02  0.00D+00 EMaxC= 1.00D-01 BMatC= 6.80D-01 BMatP= 6.80D-01
 IDIUse=3 WtCom= 6.27D-01 WtEn= 3.73D-01
 Coeff-Com:  0.100D+01
 Coeff-En:   0.100D+01
 Coeff:      0.100D+01
 Gap=     0.168 Goal=   None    Shift=    0.000
 GapD=    0.168 DampG=1.000 DampE=0.500 DampFc=0.5000 IDamp=-1.
 Damping current iteration by 5.00D-01
 RMSDP=4.79D-03 MaxDP=1.51D-01              OVMax= 1.72D-01

 Cycle   2  Pass 1  IDiag  1:
 RMSU=  2.32D-03    CP:  9.64D-01
 E= -933.350010941117     Delta-E=       -0.362535662348 Rises=F Damp=T
 DIIS: error= 5.99D-03 at cycle   2 NSaved=   2.
 NSaved= 2 IEnMin= 2 EnMin= -933.350010941117     IErMin= 2 ErrMin= 5.99D-03
 ErrMax= 5.99D-03  0.00D+00 EMaxC= 1.00D-01 BMatC= 2.88D-02 BMatP= 6.80D-01
 IDIUse=3 WtCom= 9.40D-01 WtEn= 5.99D-02
 Coeff-Com:  0.218D-02 0.998D+00
 Coeff-En:   0.000D+00 0.100D+01
 Coeff:      0.205D-02 0.998D+00
 Gap=     0.175 Goal=   None    Shift=    0.000
 RMSDP=1.24D-03 MaxDP=6.09D-02 DE=-3.63D-01 OVMax= 9.52D-02

 Cycle   3  Pass 1  IDiag  1:
 RMSU=  1.21D-03    CP:  9.46D-01  9.83D-01
 E= -933.729171678811     Delta-E=       -0.379160737695 Rises=F Damp=F
 DIIS: error= 2.39D-03 at cycle   3 NSaved=   3.
 NSaved= 3 IEnMin= 3 EnMin= -933.729171678811     IErMin= 3 ErrMin= 2.39D-03
 ErrMax= 2.39D-03  0.00D+00 EMaxC= 1.00D-01 BMatC= 7.53D-03 BMatP= 2.88D-02
 IDIUse=3 WtCom= 9.76D-01 WtEn= 2.39D-02
 Coeff-Com: -0.309D-01 0.305D+00 0.725D+00
 Coeff-En:   0.000D+00 0.000D+00 0.100D+01
 Coeff:     -0.301D-01 0.298D+00 0.732D+00
 Gap=     0.168 Goal=   None    Shift=    0.000
 RMSDP=3.79D-04 MaxDP=1.44D-02 DE=-3.79D-01 OVMax= 2.14D-02

 Cycle   4  Pass 1  IDiag  1:
 RMSU=  3.15D-04    CP:  9.47D-01  1.01D+00  8.35D-01
 E= -933.734628871330     Delta-E=       -0.005457192518 Rises=F Damp=F
 DIIS: error= 1.40D-03 at cycle   4 NSaved=   4.
 NSaved= 4 IEnMin= 4 EnMin= -933.734628871330     IErMin= 4 ErrMin= 1.40D-03
 ErrMax= 1.40D-03  0.00D+00 EMaxC= 1.00D-01 BMatC= 2.08D-03 BMatP= 7.53D-03
 IDIUse=3 WtCom= 9.86D-01 WtEn= 1.40D-02
 Coeff-Com: -0.137D-01 0.626D-01 0.372D+00 0.580D+00
 Coeff-En:   0.000D+00 0.000D+00 0.206D+00 0.794D+00
 Coeff:     -0.136D-01 0.617D-01 0.369D+00 0.583D+00
 Gap=     0.166 Goal=   None    Shift=    0.000
 RMSDP=1.67D-04 MaxDP=9.16D-03 DE=-5.46D-03 OVMax= 1.55D-02

 Cycle   5  Pass 1  IDiag  1:
 RMSU=  8.67D-05    CP:  9.47D-01  1.01D+00  8.60D-01  5.57D-01
 E= -933.736667266222     Delta-E=       -0.002038394892 Rises=F Damp=F
 DIIS: error= 5.39D-04 at cycle   5 NSaved=   5.
 NSaved= 5 IEnMin= 5 EnMin= -933.736667266222     IErMin= 5 ErrMin= 5.39D-04
 ErrMax= 5.39D-04  0.00D+00 EMaxC= 1.00D-01 BMatC= 2.02D-04 BMatP= 2.08D-03
 IDIUse=3 WtCom= 9.95D-01 WtEn= 5.39D-03
 Coeff-Com: -0.554D-02 0.163D-01 0.161D+00 0.326D+00 0.503D+00
 Coeff-En:   0.000D+00 0.000D+00 0.000D+00 0.000D+00 0.100D+01
 Coeff:     -0.551D-02 0.162D-01 0.160D+00 0.324D+00 0.505D+00
 Gap=     0.167 Goal=   None    Shift=    0.000
 RMSDP=4.96D-05 MaxDP=2.81D-03 DE=-2.04D-03 OVMax= 6.64D-03

 Cycle   6  Pass 1  IDiag  1:
 RMSU=  2.97D-05    CP:  9.47D-01  1.01D+00  8.65D-01  6.09D-01  5.90D-01
 E= -933.736865119491     Delta-E=       -0.000197853270 Rises=F Damp=F
 DIIS: error= 1.67D-04 at cycle   6 NSaved=   6.
 NSaved= 6 IEnMin= 6 EnMin= -933.736865119491     IErMin= 6 ErrMin= 1.67D-04
 ErrMax= 1.67D-04  0.00D+00 EMaxC= 1.00D-01 BMatC= 2.05D-05 BMatP= 2.02D-04
 IDIUse=3 WtCom= 9.98D-01 WtEn= 1.67D-03
 Coeff-Com: -0.162D-02 0.232D-02 0.509D-01 0.124D+00 0.293D+00 0.532D+00
 Coeff-En:   0.000D+00 0.000D+00 0.000D+00 0.000D+00 0.495D-01 0.950D+00
 Coeff:     -0.162D-02 0.232D-02 0.508D-01 0.124D+00 0.292D+00 0.532D+00
 Gap=     0.167 Goal=   None    Shift=    0.000
 RMSDP=1.43D-05 MaxDP=5.83D-04 DE=-1.98D-04 OVMax= 1.80D-03

 Cycle   7  Pass 1  IDiag  1:
 RMSU=  5.35D-06    CP:  9.47D-01  1.01D+00  8.67D-01  6.10D-01  6.37D-01
                    CP:  5.83D-01
 E= -933.736886570939     Delta-E=       -0.000021451448 Rises=F Damp=F
 DIIS: error= 2.84D-05 at cycle   7 NSaved=   7.
 NSaved= 7 IEnMin= 7 EnMin= -933.736886570939     IErMin= 7 ErrMin= 2.84D-05
 ErrMax= 2.84D-05  0.00D+00 EMaxC= 1.00D-01 BMatC= 5.94D-07 BMatP= 2.05D-05
 IDIUse=1 WtCom= 1.00D+00 WtEn= 0.00D+00
 Coeff-Com: -0.559D-03 0.496D-03 0.180D-01 0.469D-01 0.119D+00 0.255D+00
 Coeff-Com:  0.561D+00
 Coeff:     -0.559D-03 0.496D-03 0.180D-01 0.469D-01 0.119D+00 0.255D+00
 Coeff:      0.561D+00
 Gap=     0.167 Goal=   None    Shift=    0.000
 RMSDP=2.66D-06 MaxDP=1.80D-04 DE=-2.15D-05 OVMax= 3.30D-04

 Cycle   8  Pass 1  IDiag  1:
 RMSU=  1.80D-06    CP:  9.47D-01  1.01D+00  8.67D-01  6.11D-01  6.34D-01
                    CP:  6.01D-01  6.73D-01
 E= -933.736887138914     Delta-E=       -0.000000567975 Rises=F Damp=F
 DIIS: error= 8.47D-06 at cycle   8 NSaved=   8.
 NSaved= 8 IEnMin= 8 EnMin= -933.736887138914     IErMin= 8 ErrMin= 8.47D-06
 ErrMax= 8.47D-06  0.00D+00 EMaxC= 1.00D-01 BMatC= 6.08D-08 BMatP= 5.94D-07
 IDIUse=1 WtCom= 1.00D+00 WtEn= 0.00D+00
 Coeff-Com: -0.537D-04-0.950D-04 0.199D-02 0.647D-02 0.197D-01 0.538D-01
 Coeff-Com:  0.271D+00 0.647D+00
 Coeff:     -0.537D-04-0.950D-04 0.199D-02 0.647D-02 0.197D-01 0.538D-01
 Coeff:      0.271D+00 0.647D+00
 Gap=     0.167 Goal=   None    Shift=    0.000
 RMSDP=8.85D-07 MaxDP=4.93D-05 DE=-5.68D-07 OVMax= 1.19D-04

 Cycle   9  Pass 1  IDiag  1:
 RMSU=  5.21D-07    CP:  9.47D-01  1.01D+00  8.67D-01  6.12D-01  6.35D-01
                    CP:  6.02D-01  7.45D-01  6.70D-01
 E= -933.736887196612     Delta-E=       -0.000000057697 Rises=F Damp=F
 DIIS: error= 3.50D-06 at cycle   9 NSaved=   9.
 NSaved= 9 IEnMin= 9 EnMin= -933.736887196612     IErMin= 9 ErrMin= 3.50D-06
 ErrMax= 3.50D-06  0.00D+00 EMaxC= 1.00D-01 BMatC= 7.31D-09 BMatP= 6.08D-08
 IDIUse=1 WtCom= 1.00D+00 WtEn= 0.00D+00
 Coeff-Com:  0.659D-05-0.867D-04-0.923D-04 0.464D-03 0.293D-02 0.123D-01
 Coeff-Com:  0.110D+00 0.349D+00 0.525D+00
 Coeff:      0.659D-05-0.867D-04-0.923D-04 0.464D-03 0.293D-02 0.123D-01
 Coeff:      0.110D+00 0.349D+00 0.525D+00
 Gap=     0.167 Goal=   None    Shift=    0.000
 RMSDP=2.90D-07 MaxDP=1.39D-05 DE=-5.77D-08 OVMax= 4.15D-05

 Cycle  10  Pass 1  IDiag  1:
 RMSU=  1.70D-07    CP:  9.47D-01  1.01D+00  8.67D-01  6.11D-01  6.35D-01
                    CP:  6.04D-01  7.37D-01  7.29D-01  6.31D-01
 E= -933.736887204048     Delta-E=       -0.000000007436 Rises=F Damp=F
 DIIS: error= 8.17D-07 at cycle  10 NSaved=  10.
 NSaved=10 IEnMin=10 EnMin= -933.736887204048     IErMin=10 ErrMin= 8.17D-07
 ErrMax= 8.17D-07  0.00D+00 EMaxC= 1.00D-01 BMatC= 6.13D-10 BMatP= 7.31D-09
 IDIUse=1 WtCom= 1.00D+00 WtEn= 0.00D+00
 Coeff-Com:  0.100D-04-0.296D-04-0.323D-03-0.654D-03-0.113D-02-0.821D-03
 Coeff-Com:  0.204D-01 0.924D-01 0.265D+00 0.625D+00
 Coeff:      0.100D-04-0.296D-04-0.323D-03-0.654D-03-0.113D-02-0.821D-03
 Coeff:      0.204D-01 0.924D-01 0.265D+00 0.625D+00
 Gap=     0.167 Goal=   None    Shift=    0.000
 RMSDP=8.24D-08 MaxDP=4.70D-06 DE=-7.44D-09 OVMax= 1.07D-05

 Cycle  11  Pass 1  IDiag  1:
 RMSU=  3.98D-08    CP:  9.47D-01  1.01D+00  8.67D-01  6.11D-01  6.35D-01
                    CP:  6.03D-01  7.42D-01  7.32D-01  6.92D-01  6.57D-01
 E= -933.736887204625     Delta-E=       -0.000000000577 Rises=F Damp=F
 DIIS: error= 1.98D-07 at cycle  11 NSaved=  11.
 NSaved=11 IEnMin=11 EnMin= -933.736887204625     IErMin=11 ErrMin= 1.98D-07
 ErrMax= 1.98D-07  0.00D+00 EMaxC= 1.00D-01 BMatC= 5.43D-11 BMatP= 6.13D-10
 IDIUse=1 WtCom= 1.00D+00 WtEn= 0.00D+00
 Coeff-Com:  0.479D-05-0.107D-04-0.169D-03-0.375D-03-0.734D-03-0.988D-03
 Coeff-Com:  0.575D-02 0.329D-01 0.117D+00 0.341D+00 0.505D+00
 Coeff:      0.479D-05-0.107D-04-0.169D-03-0.375D-03-0.734D-03-0.988D-03
 Coeff:      0.575D-02 0.329D-01 0.117D+00 0.341D+00 0.505D+00
 Gap=     0.167 Goal=   None    Shift=    0.000
 RMSDP=2.02D-08 MaxDP=1.18D-06 DE=-5.77D-10 OVMax= 2.09D-06

 Cycle  12  Pass 1  IDiag  1:
 RMSU=  1.18D-08    CP:  9.47D-01  1.01D+00  8.67D-01  6.11D-01  6.35D-01
                    CP:  6.03D-01  7.42D-01  7.32D-01  6.94D-01  6.97D-01
                    CP:  6.50D-01
 E= -933.736887204707     Delta-E=       -0.000000000082 Rises=F Damp=F
 DIIS: error= 3.05D-08 at cycle  12 NSaved=  12.
 NSaved=12 IEnMin=12 EnMin= -933.736887204707     IErMin=12 ErrMin= 3.05D-08
 ErrMax= 3.05D-08  0.00D+00 EMaxC= 1.00D-01 BMatC= 1.51D-12 BMatP= 5.43D-11
 IDIUse=1 WtCom= 1.00D+00 WtEn= 0.00D+00
 Coeff-Com:  0.469D-06-0.448D-06-0.248D-04-0.617D-04-0.128D-03-0.230D-03
 Coeff-Com: -0.136D-03 0.191D-02 0.131D-01 0.548D-01 0.173D+00 0.758D+00
 Coeff:      0.469D-06-0.448D-06-0.248D-04-0.617D-04-0.128D-03-0.230D-03
 Coeff:     -0.136D-03 0.191D-02 0.131D-01 0.548D-01 0.173D+00 0.758D+00
 Gap=     0.167 Goal=   None    Shift=    0.000
 RMSDP=5.07D-09 MaxDP=2.57D-07 DE=-8.16D-11 OVMax= 5.10D-07

 Error on total polarization charges =  0.01432
 SCF Done:  E(RB3LYP) =  -933.736887205     A.U. after   12 cycles
            NFock= 12  Conv=0.51D-08     -V/T= 2.0078
 KE= 9.265186898342D+02 PE=-6.104640468245D+03 EE= 2.272872974554D+03
 Leave Link  502 at Wed Nov  8 22:16:14 2023, MaxMem=  5368709120 cpu:             783.6 elap:              33.9
 (Enter /home/Data/zhangqian/application/g16/l601.exe)
 Copying SCF densities to generalized density rwf, IOpCl= 0 IROHF=0.

 **********************************************************************

            Population analysis using the SCF density.

 **********************************************************************

 Orbital symmetries:
       Occupied  (A) (A) (A) (A) (A) (A) (A) (A) (A) (A) (A) (A)
                 (A) (A) (A) (A) (A) (A) (A) (A) (A) (A) (A) (A)
                 (A) (A) (A) (A) (A) (A) (A) (A) (A) (A) (A) (A)
                 (A) (A) (A) (A) (A) (A) (A) (A) (A) (A) (A) (A)
                 (A) (A) (A) (A) (A) (A) (A) (A) (A) (A) (A) (A)
                 (A) (A) (A) (A) (A) (A) (A) (A) (A) (A) (A) (A)
                 (A) (A) (A) (A) (A) (A) (A) (A) (A) (A) (A) (A)
                 (A) (A) (A) (A)
       Virtual   (A) (A) (A) (A) (A) (A) (A) (A) (A) (A) (A) (A)
                 (A) (A) (A) (A) (A) (A) (A) (A) (A) (A) (A) (A)
                 (A) (A) (A) (A) (A) (A) (A) (A) (A) (A) (A) (A)
                 (A) (A) (A) (A) (A) (A) (A) (A) (A) (A) (A) (A)
                 (A) (A) (A) (A) (A) (A) (A) (A) (A) (A) (A) (A)
                 (A) (A) (A) (A) (A) (A) (A) (A) (A) (A) (A) (A)
                 (A) (A) (A) (A) (A) (A) (A) (A) (A) (A) (A) (A)
                 (A) (A) (A) (A) (A) (A) (A) (A) (A) (A) (A) (A)
                 (A) (A) (A) (A) (A) (A) (A) (A) (A) (A) (A) (A)
                 (A) (A) (A) (A) (A) (A) (A) (A) (A) (A) (A) (A)
                 (A) (A) (A) (A) (A) (A) (A) (A) (A) (A) (A) (A)
                 (A) (A) (A) (A) (A) (A) (A) (A) (A) (A) (A) (A)
                 (A) (A) (A) (A) (A) (A) (A) (A) (A) (A) (A) (A)
                 (A) (A) (A) (A) (A) (A) (A) (A) (A) (A) (A) (A)
                 (A) (A) (A) (A) (A) (A) (A) (A) (A) (A) (A) (A)
                 (A) (A) (A) (A) (A) (A) (A) (A) (A) (A) (A) (A)
                 (A) (A) (A) (A) (A) (A) (A) (A) (A) (A) (A) (A)
                 (A) (A) (A) (A) (A) (A) (A) (A) (A) (A) (A) (A)
                 (A) (A) (A) (A) (A) (A) (A) (A) (A) (A) (A) (A)
                 (A) (A) (A) (A) (A) (A) (A) (A) (A) (A) (A) (A)
                 (A) (A) (A) (A) (A) (A) (A) (A) (A) (A) (A) (A)
                 (A) (A) (A) (A) (A) (A) (A) (A) (A) (A) (A) (A)
                 (A) (A) (A) (A) (A) (A) (A) (A) (A) (A) (A) (A)
                 (A) (A) (A) (A) (A) (A) (A) (A) (A) (A) (A) (A)
                 (A) (A) (A) (A) (A) (A) (A) (A) (A) (A) (A) (A)
                 (A) (A) (A) (A) (A) (A) (A) (A) (A) (A) (A) (A)
                 (A) (A) (A) (A) (A) (A) (A) (A) (A) (A) (A) (A)
                 (A) (A) (A) (A) (A) (A) (A) (A) (A) (A) (A) (A)
 The electronic state is 1-A.
 Alpha  occ. eigenvalues --  -10.19020 -10.18762 -10.18642 -10.18554 -10.18442
 Alpha  occ. eigenvalues --  -10.18339 -10.18253 -10.18153 -10.17908 -10.17815
 Alpha  occ. eigenvalues --  -10.17784 -10.17766 -10.17402 -10.17334 -10.17304
 Alpha  occ. eigenvalues --  -10.17209 -10.17043 -10.16670 -10.16536 -10.16265
 Alpha  occ. eigenvalues --  -10.16100 -10.15666 -10.15665 -10.15651  -0.87711
 Alpha  occ. eigenvalues --   -0.85197  -0.82756  -0.81904  -0.80606  -0.77637
 Alpha  occ. eigenvalues --   -0.76483  -0.75325  -0.73990  -0.71638  -0.68942
 Alpha  occ. eigenvalues --   -0.68031  -0.67355  -0.66908  -0.63935  -0.60941
 Alpha  occ. eigenvalues --   -0.59939  -0.58929  -0.57184  -0.55623  -0.53570
 Alpha  occ. eigenvalues --   -0.53330  -0.50687  -0.49709  -0.48419  -0.47774
 Alpha  occ. eigenvalues --   -0.47401  -0.45650  -0.44658  -0.44236  -0.43743
 Alpha  occ. eigenvalues --   -0.43013  -0.42721  -0.41977  -0.41420  -0.41088
 Alpha  occ. eigenvalues --   -0.40740  -0.40533  -0.40184  -0.39407  -0.39174
 Alpha  occ. eigenvalues --   -0.38587  -0.37928  -0.37323  -0.37096  -0.36627
 Alpha  occ. eigenvalues --   -0.35414  -0.35009  -0.34719  -0.34335  -0.33441
 Alpha  occ. eigenvalues --   -0.33054  -0.32228  -0.32184  -0.30807  -0.30049
 Alpha  occ. eigenvalues --   -0.29703  -0.29136  -0.28713  -0.28564  -0.25880
 Alpha  occ. eigenvalues --   -0.24973  -0.21774  -0.19605
 Alpha virt. eigenvalues --   -0.02953   0.00675   0.03986   0.05560   0.08111
 Alpha virt. eigenvalues --    0.09210   0.10047   0.10602   0.11369   0.11851
 Alpha virt. eigenvalues --    0.12656   0.12802   0.13279   0.13822   0.14266
 Alpha virt. eigenvalues --    0.15134   0.15704   0.15889   0.16158   0.16738
 Alpha virt. eigenvalues --    0.17117   0.17498   0.17548   0.17931   0.18096
 Alpha virt. eigenvalues --    0.18521   0.18973   0.19276   0.19806   0.20172
 Alpha virt. eigenvalues --    0.20855   0.20960   0.21510   0.22119   0.22701
 Alpha virt. eigenvalues --    0.23221   0.23408   0.23615   0.24262   0.24668
 Alpha virt. eigenvalues --    0.24844   0.25298   0.25895   0.26238   0.27328
 Alpha virt. eigenvalues --    0.27819   0.28135   0.29489   0.29932   0.30168
 Alpha virt. eigenvalues --    0.31547   0.31874   0.33796   0.35048   0.37372
 Alpha virt. eigenvalues --    0.39855   0.41272   0.42897   0.43473   0.44483
 Alpha virt. eigenvalues --    0.48237   0.49081   0.50140   0.50627   0.50928
 Alpha virt. eigenvalues --    0.52308   0.52547   0.52819   0.53067   0.53849
 Alpha virt. eigenvalues --    0.54784   0.55559   0.56094   0.56427   0.56775
 Alpha virt. eigenvalues --    0.57303   0.57539   0.58089   0.58534   0.58961
 Alpha virt. eigenvalues --    0.59137   0.60434   0.60689   0.61795   0.62234
 Alpha virt. eigenvalues --    0.63241   0.63694   0.64021   0.64470   0.65217
 Alpha virt. eigenvalues --    0.66089   0.66486   0.67521   0.68155   0.68622
 Alpha virt. eigenvalues --    0.68907   0.69721   0.70835   0.71931   0.72142
 Alpha virt. eigenvalues --    0.73105   0.73761   0.73832   0.74237   0.75038
 Alpha virt. eigenvalues --    0.75518   0.76029   0.77998   0.78401   0.79138
 Alpha virt. eigenvalues --    0.80282   0.81205   0.82190   0.82620   0.83728
 Alpha virt. eigenvalues --    0.83934   0.84478   0.85260   0.85592   0.86079
 Alpha virt. eigenvalues --    0.86467   0.86743   0.87142   0.88218   0.89150
 Alpha virt. eigenvalues --    0.89708   0.90238   0.90402   0.91287   0.92092
 Alpha virt. eigenvalues --    0.92367   0.92483   0.93055   0.93209   0.93829
 Alpha virt. eigenvalues --    0.94537   0.94836   0.95648   0.96141   0.96770
 Alpha virt. eigenvalues --    0.97157   0.97252   0.97809   0.98350   0.98530
 Alpha virt. eigenvalues --    0.98777   0.99163   0.99936   1.00891   1.01164
 Alpha virt. eigenvalues --    1.01924   1.02188   1.03278   1.04022   1.05118
 Alpha virt. eigenvalues --    1.05565   1.06746   1.09082   1.10352   1.11135
 Alpha virt. eigenvalues --    1.13648   1.14526   1.14799   1.16427   1.18201
 Alpha virt. eigenvalues --    1.20276   1.20990   1.24171   1.24938   1.25323
 Alpha virt. eigenvalues --    1.25718   1.27530   1.29088   1.29760   1.31428
 Alpha virt. eigenvalues --    1.33179   1.34236   1.37106   1.37811   1.39621
 Alpha virt. eigenvalues --    1.41002   1.42472   1.42985   1.43836   1.45379
 Alpha virt. eigenvalues --    1.47209   1.48766   1.48889   1.50164   1.51697
 Alpha virt. eigenvalues --    1.55327   1.55759   1.57398   1.58676   1.60638
 Alpha virt. eigenvalues --    1.62452   1.64547   1.66731   1.67086   1.67742
 Alpha virt. eigenvalues --    1.70461   1.71489   1.73539   1.74521   1.76712
 Alpha virt. eigenvalues --    1.77320   1.79128   1.79373   1.80184   1.80904
 Alpha virt. eigenvalues --    1.81076   1.82093   1.84233   1.85586   1.86096
 Alpha virt. eigenvalues --    1.87688   1.88978   1.90223   1.91181   1.91401
 Alpha virt. eigenvalues --    1.91867   1.92350   1.93433   1.94004   1.96423
 Alpha virt. eigenvalues --    1.97752   1.98255   1.99265   1.99821   2.00325
 Alpha virt. eigenvalues --    2.01426   2.02192   2.02767   2.03547   2.07238
 Alpha virt. eigenvalues --    2.08017   2.08376   2.09038   2.09725   2.10660
 Alpha virt. eigenvalues --    2.11123   2.12458   2.13802   2.14113   2.15555
 Alpha virt. eigenvalues --    2.16576   2.17616   2.18775   2.21069   2.21921
 Alpha virt. eigenvalues --    2.23010   2.24302   2.26096   2.27602   2.28147
 Alpha virt. eigenvalues --    2.28495   2.29227   2.29558   2.30571   2.30713
 Alpha virt. eigenvalues --    2.31541   2.32950   2.33019   2.33549   2.34809
 Alpha virt. eigenvalues --    2.35443   2.36335   2.37501   2.38559   2.40097
 Alpha virt. eigenvalues --    2.41876   2.42809   2.43016   2.43959   2.44822
 Alpha virt. eigenvalues --    2.45977   2.47764   2.48820   2.51678   2.53193
 Alpha virt. eigenvalues --    2.54215   2.55175   2.58308   2.61880   2.62819
 Alpha virt. eigenvalues --    2.64881   2.65284   2.66364   2.68571   2.69716
 Alpha virt. eigenvalues --    2.70149   2.71143   2.71478   2.72612   2.75613
 Alpha virt. eigenvalues --    2.79138   2.79491   2.81886   2.83626   2.84597
 Alpha virt. eigenvalues --    2.86936   2.88547   2.90502   2.92946   2.97402
 Alpha virt. eigenvalues --    2.99048   3.01188   3.10005   3.13631   3.23026
 Alpha virt. eigenvalues --    3.41631   3.51114   4.09754   4.11555   4.12375
 Alpha virt. eigenvalues --    4.13880   4.15836   4.17881   4.21007   4.22780
 Alpha virt. eigenvalues --    4.25892   4.28223   4.30366   4.30497   4.34471
 Alpha virt. eigenvalues --    4.36562   4.39229   4.40981   4.45416   4.48883
 Alpha virt. eigenvalues --    4.51159   4.56424   4.63979   4.65125   4.73392
 Alpha virt. eigenvalues --    4.90662
          Condensed to atoms (all electrons):
 Mulliken charges:
               1
     1  C    0.136336
     2  C   -0.282873
     3  C    0.134516
     4  C    0.074744
     5  C   -0.222429
     6  C   -0.205089
     7  H    0.129234
     8  H    0.139599
     9  C   -0.301812
    10  C    0.010579
    11  H    0.143032
    12  H    0.131556
    13  C    0.028560
    14  C    0.100819
    15  C   -0.361002
    16  C   -0.151769
    17  C   -0.267812
    18  C   -0.293614
    19  H    0.161458
    20  H    0.161790
    21  H    0.150037
    22  H    0.152940
    23  H    0.138784
    24  H    0.150676
    25  C   -0.386292
    26  C   -0.052242
    27  C   -0.347904
    28  H    0.147320
    29  H    0.160892
    30  H    0.152695
    31  H    0.120347
    32  H    0.194798
    33  C   -0.476484
    34  H    0.146982
    35  H    0.159183
    36  H    0.161293
    37  H    0.168714
    38  C   -0.336680
    39  H    0.157985
    40  H    0.148474
    41  C   -0.282144
    42  H    0.157134
    43  H    0.140813
    44  C   -0.260873
    45  H    0.132401
    46  H    0.131285
    47  C   -0.069919
    48  H    0.126267
    49  C   -0.454470
    50  H    0.141715
    51  H    0.143277
    52  H    0.140764
    53  C   -0.464907
    54  H    0.150424
    55  H    0.148519
    56  H    0.142372
 Sum of Mulliken charges =  -0.00000
 Mulliken charges with hydrogens summed into heavy atoms:
               1
     1  C    0.136336
     2  C   -0.143273
     3  C    0.134516
     4  C    0.074744
     5  C   -0.079397
     6  C   -0.073533
     9  C   -0.172578
    10  C    0.010579
    13  C    0.028560
    14  C    0.100819
    15  C   -0.037753
    16  C    0.043029
    17  C    0.035165
    18  C   -0.004155
    25  C   -0.078080
    26  C    0.116471
    27  C   -0.074861
    33  C   -0.009027
    38  C   -0.030222
    41  C    0.015803
    44  C    0.002812
    47  C    0.056348
    49  C   -0.028714
    53  C   -0.023591
 Electronic spatial extent (au):  <R**2>=          13754.6098
 Charge=             -0.0000 electrons
 Dipole moment (field-independent basis, Debye):
    X=              1.6170    Y=              0.6973    Z=             -1.0173  Tot=              2.0337
 Quadrupole moment (field-independent basis, Debye-Ang):
   XX=           -131.3445   YY=           -137.5557   ZZ=           -147.9273
   XY=              2.2802   XZ=             -4.2271   YZ=              0.5397
 Traceless Quadrupole moment (field-independent basis, Debye-Ang):
   XX=              7.5980   YY=              1.3868   ZZ=             -8.9848
   XY=              2.2802   XZ=             -4.2271   YZ=              0.5397
 Octapole moment (field-independent basis, Debye-Ang**2):
  XXX=             70.8258  YYY=              4.7851  ZZZ=              1.4609  XYY=             16.8755
  XXY=              3.9407  XXZ=            -30.6108  XZZ=              1.1998  YZZ=              4.3330
  YYZ=             -1.8082  XYZ=              0.4004
 Hexadecapole moment (field-independent basis, Debye-Ang**3):
 XXXX=         -15761.2711 YYYY=          -2888.4199 ZZZZ=           -325.3321 XXXY=             15.8651
 XXXZ=            -95.2229 YYYX=             60.2738 YYYZ=              9.7828 ZZZX=             -6.1383
 ZZZY=              0.7381 XXYY=          -3021.3725 XXZZ=          -2633.0474 YYZZ=           -540.1543
 XXYZ=             25.1890 YYXZ=            -26.5766 ZZXY=             16.0771
 N-N= 1.971511916652D+03 E-N=-6.104640452031D+03  KE= 9.265186898342D+02
 No NMR shielding tensors so no spin-rotation constants.
 Leave Link  601 at Wed Nov  8 22:16:14 2023, MaxMem=  5368709120 cpu:               3.8 elap:               0.2
 (Enter /home/Data/zhangqian/application/g16/l701.exe)
 ... and contract with generalized density number  0.
 Compute integral first derivatives.
 R6Disp: Adding Grimme-D3 dispersion energy 1st derivatives to the gradient.
 D1PCM: PCM CHGder 1st derivatives, ID1Alg=3 FixD1E=F DoIter=F DoCFld=F I1PDM=0.
 GePol: Maximum number of non-zero 1st derivatives   =     203
 Leave Link  701 at Wed Nov  8 22:16:16 2023, MaxMem=  5368709120 cpu:              33.9 elap:               1.4
 (Enter /home/Data/zhangqian/application/g16/l702.exe)
 L702 exits ... SP integral derivatives will be done elsewhere.
 Leave Link  702 at Wed Nov  8 22:16:16 2023, MaxMem=  5368709120 cpu:               0.7 elap:               0.0
 (Enter /home/Data/zhangqian/application/g16/l703.exe)
 Integral derivatives from FoFJK, PRISM(SPDF).
 Compute integral first derivatives, UseDBF=F ICtDFT=           0.
 Calling FoFJK, ICntrl=      2127 FMM=F ISym2X=0 I1Cent= 0 IOpClX= 0 NMat=1 NMatS=1 NMatT=0.
 FoFJK:  IHMeth= 1 ICntrl=    2127 DoSepK=F KAlg= 0 I1Cent=           0 FoldK=F
 IRaf=         0 NMat=       1 IRICut=       1 DoRegI=T DoRafI=F ISym2E= 0 IDoP0=0 IntGTp=1.
 FoFCou: FMM=F IPFlag=           0 FMFlag=      100000 FMFlg1=         800
         NFxFlg=           0 DoJE=F BraDBF=F KetDBF=F FulRan=T
         wScrn=  0.000000 ICntrl=      2127 IOpCl=  0 I1Cent=           0 NGrid=           0
         NMat0=    1 NMatS0=      1 NMatT0=    0 NMatD0=    1 NMtDS0=    0 NMtDT0=    0
 Symmetry not used in FoFCou.
 Leave Link  703 at Wed Nov  8 22:16:22 2023, MaxMem=  5368709120 cpu:             156.7 elap:               6.5
 (Enter /home/Data/zhangqian/application/g16/l716.exe)
 Dipole        = 6.36196131D-01 2.74339514D-01-4.00250503D-01
 ***** Axes restored to original set *****
 -------------------------------------------------------------------
 Center     Atomic                   Forces (Hartrees/Bohr)
 Number     Number              X              Y              Z
 -------------------------------------------------------------------
      1        6          -0.017704950   -0.016477581    0.003030141
[...]
     13          6           0        2.815857    0.587467   -0.167935
     14          6           0        1.942211    1.715533   -0.272031
     15          6           0        2.589127    3.064337   -0.464894
     16          6           0        4.303194    0.898846   -0.132567
     17          6           0        3.710766    3.327171    0.566276
     18          6           0        4.556101    2.059616    0.857833
     19          1           0        3.030383    3.093796   -1.472348
     20          1           0        1.840705    3.863711   -0.432310
     21          1           0        4.346124    4.138673    0.193840
     22          1           0        3.260958    3.686833    1.498697
     23          1           0        4.323061    1.685133    1.862724
     24          1           0        5.626053    2.300249    0.857445
     25          6           0        3.233221   -1.899782   -0.057735
     26          6           0        4.666338   -1.579277   -0.508917
     27          6           0        5.153038   -0.326559    0.223569
     28          1           0        3.264374   -2.324497    0.958445
     29          1           0        2.828654   -2.693259   -0.698487
     30          1           0        6.206706   -0.122552   -0.006566
     31          1           0        5.096592   -0.510085    1.307663
     32          1           0        4.604659    1.240192   -1.136848
     33          6           0        5.595579   -2.776322   -0.289602
     34          1           0        5.674013   -3.016090    0.778884
     35          1           0        5.223686   -3.669349   -0.806499
     36          1           0        6.605301   -2.564942   -0.660974
     37          1           0        4.638683   -1.352898   -1.586086
     38          6           0       -3.456675   -1.436372    0.204061
     39          1           0       -3.736264   -2.141511   -0.593246
     40          1           0       -3.671325   -1.968702    1.142937
     41          6           0       -4.358678   -0.201752    0.113215
     42          1           0       -4.152514    0.328139   -0.825013
     43          1           0       -4.112347    0.496786    0.925488
     44          6           0       -5.846652   -0.565235    0.193845
     45          1           0       -6.111290   -1.209310   -0.659044
     46          1           0       -6.012763   -1.171088    1.096721
     47          6           0       -6.807675    0.637956    0.227350
     48          1           0       -6.516869    1.273196    1.078606
     49          6           0       -8.249468    0.163730    0.461738
     50          1           0       -8.941216    1.012083    0.528299
     51          1           0       -8.585560   -0.476755   -0.364628
     52          1           0       -8.333972   -0.415659    1.389167
     53          6           0       -6.724717    1.488336   -1.049355
     54          1           0       -5.726572    1.914422   -1.196553
     55          1           0       -6.964517    0.881236   -1.932751
     56          1           0       -7.438501    2.320010   -1.012121
 ---------------------------------------------------------------------
 Rotational constants (GHZ):           0.5103650           0.0880072           0.0767293
 Leave Link  202 at Wed Nov  8 22:31:30 2023, MaxMem=  5368709120 cpu:               0.0 elap:               0.0
 (Enter /home/Data/zhangqian/application/g16/l601.exe)
 Copying SCF densities to generalized density rwf, IOpCl= 0 IROHF=0.

 **********************************************************************

            Population analysis using the SCF density.

 **********************************************************************

 Orbital symmetries:
       Occupied  (A) (A) (A) (A) (A) (A) (A) (A) (A) (A) (A) (A)
                 (A) (A) (A) (A) (A) (A) (A) (A) (A) (A) (A) (A)
                 (A) (A) (A) (A) (A) (A) (A) (A) (A) (A) (A) (A)
                 (A) (A) (A) (A) (A) (A) (A) (A) (A) (A) (A) (A)
                 (A) (A) (A) (A) (A) (A) (A) (A) (A) (A) (A) (A)
                 (A) (A) (A) (A) (A) (A) (A) (A) (A) (A) (A) (A)
                 (A) (A) (A) (A) (A) (A) (A) (A) (A) (A) (A) (A)
                 (A) (A) (A) (A)
       Virtual   (A) (A) (A) (A) (A) (A) (A) (A) (A) (A) (A) (A)
                 (A) (A) (A) (A) (A) (A) (A) (A) (A) (A) (A) (A)
                 (A) (A) (A) (A) (A) (A) (A) (A) (A) (A) (A) (A)
                 (A) (A) (A) (A) (A) (A) (A) (A) (A) (A) (A) (A)
                 (A) (A) (A) (A) (A) (A) (A) (A) (A) (A) (A) (A)
                 (A) (A) (A) (A) (A) (A) (A) (A) (A) (A) (A) (A)
                 (A) (A) (A) (A) (A) (A) (A) (A) (A) (A) (A) (A)
                 (A) (A) (A) (A) (A) (A) (A) (A) (A) (A) (A) (A)
                 (A) (A) (A) (A) (A) (A) (A) (A) (A) (A) (A) (A)
                 (A) (A) (A) (A) (A) (A) (A) (A) (A) (A) (A) (A)
                 (A) (A) (A) (A) (A) (A) (A) (A) (A) (A) (A) (A)
                 (A) (A) (A) (A) (A) (A) (A) (A) (A) (A) (A) (A)
                 (A) (A) (A) (A) (A) (A) (A) (A) (A) (A) (A) (A)
                 (A) (A) (A) (A) (A) (A) (A) (A) (A) (A) (A) (A)
                 (A) (A) (A) (A) (A) (A) (A) (A) (A) (A) (A) (A)
                 (A) (A) (A) (A) (A) (A) (A) (A) (A) (A) (A) (A)
                 (A) (A) (A) (A) (A) (A) (A) (A) (A) (A) (A) (A)
                 (A) (A) (A) (A) (A) (A) (A) (A) (A) (A) (A) (A)
                 (A) (A) (A) (A) (A) (A) (A) (A) (A) (A) (A) (A)
                 (A) (A) (A) (A) (A) (A) (A) (A) (A) (A) (A) (A)
                 (A) (A) (A) (A) (A) (A) (A) (A) (A) (A) (A) (A)
                 (A) (A) (A) (A) (A) (A) (A) (A) (A) (A) (A) (A)
                 (A) (A) (A) (A) (A) (A) (A) (A) (A) (A) (A) (A)
                 (A) (A) (A) (A) (A) (A) (A) (A) (A) (A) (A) (A)
                 (A) (A) (A) (A) (A) (A) (A) (A) (A) (A) (A) (A)
                 (A) (A) (A) (A) (A) (A) (A) (A) (A) (A) (A) (A)
                 (A) (A) (A) (A) (A) (A) (A) (A) (A) (A) (A) (A)
                 (A) (A) (A) (A) (A) (A) (A) (A) (A) (A) (A) (A)
 The electronic state is 1-A.
 Alpha  occ. eigenvalues --  -10.19246 -10.19114 -10.19058 -10.18987 -10.18754
 Alpha  occ. eigenvalues --  -10.18628 -10.18501 -10.18449 -10.18367 -10.18360
 Alpha  occ. eigenvalues --  -10.18330 -10.18278 -10.18193 -10.18141 -10.18032
 Alpha  occ. eigenvalues --  -10.17935 -10.17905 -10.17725 -10.17668 -10.17361
 Alpha  occ. eigenvalues --  -10.17354 -10.16994 -10.16777 -10.16754  -0.87480
 Alpha  occ. eigenvalues --   -0.84477  -0.81400  -0.81073  -0.79639  -0.76918
 Alpha  occ. eigenvalues --   -0.75923  -0.74655  -0.72835  -0.71566  -0.67603
 Alpha  occ. eigenvalues --   -0.67578  -0.66980  -0.66370  -0.62917  -0.60663
 Alpha  occ. eigenvalues --   -0.59569  -0.58315  -0.57259  -0.55231  -0.54509
 Alpha  occ. eigenvalues --   -0.54161  -0.50841  -0.48227  -0.47984  -0.46937
 Alpha  occ. eigenvalues --   -0.46497  -0.45406  -0.44294  -0.43945  -0.43529
 Alpha  occ. eigenvalues --   -0.42649  -0.42382  -0.41667  -0.41156  -0.40562
 Alpha  occ. eigenvalues --   -0.40467  -0.40114  -0.39254  -0.38615  -0.38047
 Alpha  occ. eigenvalues --   -0.37724  -0.37236  -0.36673  -0.36242  -0.36165
 Alpha  occ. eigenvalues --   -0.35546  -0.35297  -0.34802  -0.34046  -0.33403
 Alpha  occ. eigenvalues --   -0.33324  -0.32498  -0.31929  -0.31531  -0.31302
 Alpha  occ. eigenvalues --   -0.31000  -0.30367  -0.29906  -0.29274  -0.28810
 Alpha  occ. eigenvalues --   -0.26835  -0.22581  -0.20460
 Alpha virt. eigenvalues --   -0.03074  -0.00489   0.03895   0.08710   0.08818
 Alpha virt. eigenvalues --    0.08998   0.09977   0.11091   0.11303   0.11630
 Alpha virt. eigenvalues --    0.12198   0.12596   0.13121   0.13881   0.14128
 Alpha virt. eigenvalues --    0.14804   0.15203   0.15445   0.15933   0.16214
 Alpha virt. eigenvalues --    0.16433   0.16886   0.16983   0.17342   0.17805
 Alpha virt. eigenvalues --    0.18553   0.18729   0.19295   0.19389   0.19803
 Alpha virt. eigenvalues --    0.20037   0.20623   0.21094   0.21523   0.21800
 Alpha virt. eigenvalues --    0.21908   0.22397   0.22661   0.22960   0.23538
 Alpha virt. eigenvalues --    0.24316   0.24624   0.25102   0.25486   0.25873
 Alpha virt. eigenvalues --    0.26658   0.26932   0.27307   0.27727   0.29796
 Alpha virt. eigenvalues --    0.30435   0.31089   0.32321   0.34220   0.35022
 Alpha virt. eigenvalues --    0.35930   0.37125   0.37389   0.40584   0.42912
 Alpha virt. eigenvalues --    0.47540   0.49080   0.50576   0.50736   0.51169
 Alpha virt. eigenvalues --    0.51387   0.52076   0.52540   0.52846   0.53353
 Alpha virt. eigenvalues --    0.53693   0.53854   0.54682   0.55227   0.55645
 Alpha virt. eigenvalues --    0.55969   0.56502   0.57147   0.57709   0.57920
 Alpha virt. eigenvalues --    0.58926   0.60035   0.60658   0.60709   0.61640
 Alpha virt. eigenvalues --    0.62174   0.62547   0.63244   0.63600   0.63751
 Alpha virt. eigenvalues --    0.64652   0.65410   0.66792   0.67146   0.67835
 Alpha virt. eigenvalues --    0.68774   0.68922   0.69747   0.70263   0.70647
 Alpha virt. eigenvalues --    0.72869   0.73034   0.73564   0.73740   0.74432
 Alpha virt. eigenvalues --    0.75052   0.75357   0.75913   0.77939   0.78776
 Alpha virt. eigenvalues --    0.79772   0.80711   0.81872   0.82494   0.82693
 Alpha virt. eigenvalues --    0.82868   0.83357   0.84012   0.84352   0.84978
 Alpha virt. eigenvalues --    0.85309   0.85699   0.86068   0.87315   0.87382
 Alpha virt. eigenvalues --    0.87864   0.87954   0.89142   0.90147   0.90257
 Alpha virt. eigenvalues --    0.90296   0.90630   0.91398   0.92036   0.92553
 Alpha virt. eigenvalues --    0.92569   0.92782   0.93860   0.94001   0.94915
 Alpha virt. eigenvalues --    0.95127   0.95619   0.96211   0.96458   0.96519
 Alpha virt. eigenvalues --    0.96703   0.96867   0.97893   0.98131   0.98710
 Alpha virt. eigenvalues --    0.99165   0.99459   0.99777   1.03083   1.04082
 Alpha virt. eigenvalues --    1.04590   1.05556   1.06132   1.08110   1.08455
 Alpha virt. eigenvalues --    1.12064   1.12976   1.13908   1.14392   1.16767
 Alpha virt. eigenvalues --    1.19158   1.19256   1.21437   1.23195   1.24796
 Alpha virt. eigenvalues --    1.26229   1.26499   1.29630   1.31195   1.33742
 Alpha virt. eigenvalues --    1.36209   1.36845   1.38055   1.39446   1.41548
 Alpha virt. eigenvalues --    1.42420   1.44050   1.44650   1.45678   1.46120
 Alpha virt. eigenvalues --    1.47018   1.48596   1.49877   1.50375   1.51702
 Alpha virt. eigenvalues --    1.52539   1.54631   1.57246   1.60141   1.60488
 Alpha virt. eigenvalues --    1.61627   1.62957   1.66524   1.67916   1.68815
 Alpha virt. eigenvalues --    1.70491   1.73369   1.73975   1.75281   1.76158
 Alpha virt. eigenvalues --    1.77084   1.77776   1.78519   1.79199   1.80458
 Alpha virt. eigenvalues --    1.81295   1.82350   1.83117   1.83917   1.84814
 Alpha virt. eigenvalues --    1.86237   1.86679   1.88205   1.88524   1.89431
 Alpha virt. eigenvalues --    1.90234   1.92068   1.93038   1.93423   1.93801
 Alpha virt. eigenvalues --    1.94804   1.95349   1.96694   1.97064   1.97799
 Alpha virt. eigenvalues --    1.98984   1.99112   1.99709   2.01128   2.01299
 Alpha virt. eigenvalues --    2.01807   2.02382   2.03476   2.04297   2.04355
 Alpha virt. eigenvalues --    2.05805   2.07972   2.09301   2.10160   2.10969
 Alpha virt. eigenvalues --    2.12634   2.13763   2.14870   2.15388   2.16056
 Alpha virt. eigenvalues --    2.18682   2.19629   2.20980   2.22342   2.22660
 Alpha virt. eigenvalues --    2.24877   2.25378   2.25963   2.26505   2.26828
 Alpha virt. eigenvalues --    2.27532   2.28139   2.28942   2.30708   2.32183
 Alpha virt. eigenvalues --    2.32935   2.33670   2.35405   2.36847   2.37646
 Alpha virt. eigenvalues --    2.38396   2.41535   2.42106   2.43655   2.44333
 Alpha virt. eigenvalues --    2.44860   2.46889   2.48583   2.50120   2.50508
 Alpha virt. eigenvalues --    2.51848   2.52150   2.53683   2.54185   2.54821
 Alpha virt. eigenvalues --    2.59461   2.62357   2.63724   2.65198   2.66997
 Alpha virt. eigenvalues --    2.68049   2.70011   2.71384   2.71512   2.73409
 Alpha virt. eigenvalues --    2.76023   2.77098   2.78895   2.80121   2.81309
 Alpha virt. eigenvalues --    2.84943   2.85696   2.88761   2.91354   2.93727
 Alpha virt. eigenvalues --    2.95202   2.98263   3.05111   3.11750   3.18420
 Alpha virt. eigenvalues --    3.38679   3.49030   4.08899   4.11610   4.12571
 Alpha virt. eigenvalues --    4.13595   4.14933   4.17036   4.18699   4.21169
 Alpha virt. eigenvalues --    4.24894   4.29193   4.29389   4.32131   4.33550
 Alpha virt. eigenvalues --    4.34154   4.37986   4.41537   4.45495   4.49142
 Alpha virt. eigenvalues --    4.52154   4.58093   4.60983   4.64166   4.73541
 Alpha virt. eigenvalues --    4.87763
          Condensed to atoms (all electrons):
 Mulliken charges:
               1
     1  C    0.161708
     2  C   -0.297338
     3  C    0.149578
     4  C    0.059711
     5  C   -0.223122
     6  C   -0.196498
     7  H    0.131892
     8  H    0.138060
     9  C   -0.314098
    10  C    0.040144
    11  H    0.142346
    12  H    0.132428
    13  C    0.046157
    14  C    0.141846
    15  C   -0.358679
    16  C   -0.171905
    17  C   -0.267945
    18  C   -0.270554
    19  H    0.155562
    20  H    0.147511
    21  H    0.139435
    22  H    0.142714
    23  H    0.136429
    24  H    0.139101
    25  C   -0.345602
    26  C   -0.083115
    27  C   -0.266679
    28  H    0.149132
    29  H    0.151430
    30  H    0.133445
    31  H    0.130180
    32  H    0.140935
    33  C   -0.453575
    34  H    0.141815
    35  H    0.143480
    36  H    0.144290
    37  H    0.127307
    38  C   -0.346816
    39  H    0.153066
    40  H    0.152950
    41  C   -0.269983
    42  H    0.144418
    43  H    0.137757
    44  C   -0.249714
    45  H    0.127115
    46  H    0.128471
    47  C   -0.064517
    48  H    0.121661
    49  C   -0.449391
    50  H    0.140950
    51  H    0.139676
    52  H    0.141064
    53  C   -0.452071
    54  H    0.147144
    55  H    0.139442
    56  H    0.141253
 Sum of Mulliken charges =  -0.00000
 Mulliken charges with hydrogens summed into heavy atoms:
               1
     1  C    0.161708
     2  C   -0.159277
     3  C    0.149578
     4  C    0.059711
     5  C   -0.080776
     6  C   -0.064071
     9  C   -0.182206
    10  C    0.040144
    13  C    0.046157
    14  C    0.141846
    15  C   -0.055606
    16  C   -0.030970
    17  C    0.014204
    18  C    0.004976
    25  C   -0.045041
    26  C    0.044193
    27  C   -0.003053
    33  C   -0.023991
    38  C   -0.040799
    41  C    0.012193
    44  C    0.005871
    47  C    0.057144
    49  C   -0.027702
    53  C   -0.024232
 Electronic spatial extent (au):  <R**2>=          14081.0854
 Charge=             -0.0000 electrons
 Dipole moment (field-independent basis, Debye):
    X=              0.6334    Y=              0.2177    Z=             -0.0259  Tot=              0.6703
 Quadrupole moment (field-independent basis, Debye-Ang):
   XX=           -133.5460   YY=           -138.9313   ZZ=           -149.3650
   XY=              1.9200   XZ=             -1.6803   YZ=             -0.8254
 Traceless Quadrupole moment (field-independent basis, Debye-Ang):
   XX=              7.0681   YY=              1.6828   ZZ=             -8.7509
   XY=              1.9200   XZ=             -1.6803   YZ=             -0.8254
 Octapole moment (field-independent basis, Debye-Ang**2):
  XXX=             37.9016  YYY=              0.0588  ZZZ=              1.8819  XYY=              5.0092
  XXY=              7.4987  XXZ=             -4.7041  XZZ=              0.5698  YZZ=              0.1393
  YYZ=             -0.4771  XYZ=             -3.4528
 Hexadecapole moment (field-independent basis, Debye-Ang**3):
 XXXX=         -16252.4389 YYYY=          -2723.8596 ZZZZ=           -404.8486 XXXY=             45.6769
 XXXZ=            -47.2218 YYYX=             32.7605 YYYZ=             -6.9324 ZZZX=             -5.7869
 ZZZY=              2.1300 XXYY=          -3139.9872 XXZZ=          -2780.0558 YYZZ=           -539.2675
 XXYZ=              2.1155 YYXZ=            -14.7258 ZZXY=              7.9744
 N-N= 1.961144632498D+03 E-N=-6.082581198785D+03  KE= 9.246640943863D+02
 No NMR shielding tensors so no spin-rotation constants.
 Leave Link  601 at Wed Nov  8 22:31:30 2023, MaxMem=  5368709120 cpu:               3.8 elap:               0.2
 (Enter /home/Data/zhangqian/application/g16/l9999.exe)
 1\1\GINC-INFRARED\FOpt\RB3LYP\6-31G(d)\C24H32\ZHANGQIAN\08-Nov-2023\0\
 \#p opt b3lyp/6-31g(d) scrf=(solvent=water,pcm) empiricaldispersion=gd
 3\\Title Card Required\\0,1\C,-20.5489258204,-8.401985207,2.0459926878
 \C,-19.1785615129,-8.3410778781,2.1985022874\C,-18.4978631081,-7.10984
 7796,2.4104019702\C,-19.2422984169,-5.8887932645,2.4787488963\C,-20.65
 45607058,-5.9737678328,2.3155591781\C,-21.2791622765,-7.182208569,2.10
 60676867\H,-16.5247627781,-7.9975570773,2.5342302847\H,-18.578751941,-
 9.2459986261,2.1568719396\C,-17.0867979287,-7.0657355397,2.5636665679\
 C,-18.5521410681,-4.6478232599,2.6876956682\H,-21.2548574629,-5.070401
 7598,2.3445209295\H,-22.359756793,-7.2126452913,1.9810665537\C,-17.169
 3201164,-4.6455703192,2.7808334892\C,-16.431915589,-5.8710446407,2.748
 0341961\C,-14.9413094703,-5.7765103575,2.9580951688\C,-16.3430980028,-
 3.3747157375,2.8933810706\C,-14.2886637439,-4.7140564253,2.0439217286\
 C,-15.1657509049,-3.4435667583,1.8927039448\H,-14.75836932,-5.49257675
 56,4.005211244\H,-14.4649802945,-6.752688747,2.8153282743\H,-13.304083
 5624,-4.4581980304,2.4514292752\H,-14.1119284807,-5.1538028106,1.05575
 16286\H,-15.5955918469,-3.4112620405,0.8834738929\H,-14.5559586183,-2.
 5382388371,1.9987036113\C,-19.3390007122,-3.3554610254,2.8099486878\C,
 -18.5254551564,-2.1933916006,3.3997374377\C,-17.1790192481,-2.10780826
 49,2.6768957558\H,-19.7205230738,-3.0590478777,1.8197194528\H,-20.2271
 193132,-3.5189855852,3.4331249744\H,-16.6100447356,-1.2305515217,3.010
 7904189\H,-17.3668502098,-1.9712425333,1.6006997889\H,-15.9195288253,-
 3.3316726661,3.9105907973\C,-19.3067948838,-0.8786025579,3.3266273315\
 H,-19.4985753109,-0.5986703191,2.2825195294\H,-20.2755933811,-0.962125
 5305,3.8340102697\H,-18.7472515945,-0.0607559937,3.7958542548\H,-18.32
 79093676,-2.4224568626,4.4584201731\C,-21.314930081,-9.6914089357,1.81
 52300359\H,-22.0761670779,-9.7885350264,2.6040106674\H,-21.885629432,-
 9.593026618,0.8795151779\C,-20.4882889755,-10.9798182328,1.7622053469\
 H,-19.922919057,-11.0851179405,2.6964591073\H,-19.7451358656,-10.90945
 00754,0.9552404016\C,-21.3629504225,-12.2194254573,1.5363095983\H,-22.
 0620264473,-12.3308800227,2.3796105714\H,-21.9848823839,-12.053819284,
 0.6443390024\C,-20.5864581186,-13.5371502262,1.3545987965\H,-19.886205
 8416,-13.3984665397,0.5160588234\C,-21.5472750502,-14.676831342,0.9850
 708112\H,-21.0047274614,-15.6141706455,0.812774146\H,-22.2686433359,-1
 4.8527770847,1.7942257317\H,-22.1150467489,-14.4422854707,0.0764558357
 \C,-19.7676299138,-13.9098590485,2.5998344041\H,-19.0111888825,-13.154
 1731046,2.8369970216\H,-20.4233709233,-14.0150030588,3.4747122261\H,-1
 9.2486772362,-14.8649770066,2.454942258\\Version=ES64L-G16RevA.03\Stat
 e=1-A\HF=-933.9461626\RMSD=4.691e-09\RMSF=2.775e-06\Dipole=0.1696103,0
 .1991035,0.0335889\Quadrupole=2.7223722,3.4289686,-6.1513408,2.2638193
 ,1.3196291,2.0877248\PG=C01 [X(C24H32)]\\@


 WE HAVE LEFT UNDONE THOSE THINGS WHICH WE OUGHT TO HAVE DONE,
 AND WE HAVE DONE THOSE THINGS WHICH WE OUGHT NOT TO HAVE DONE.
                   BOOK OF COMMON PRAYER                      
 Job cpu time:       0 days  6 hours  4 minutes 43.1 seconds.
 Elapsed time:       0 days  0 hours 15 minutes 46.2 seconds.
 File lengths (MBytes):  RWF=    517 Int=      0 D2E=      0 Chk=     22 Scr=      1
 Normal termination of Gaussian 16 at Wed Nov  8 22:31:30 2023.
