 Entering Gaussian System, Link 0=g16
 Input=resin1.gjf
 Output=resin1.log
 Initial command:
 /home/Data/zhangqian/application/g16/l1.exe "./Gau-65607.inp" -scrdir="./"
 Default is to use a total of  24 processors:
                               24 via shared-memory
                                1 via Linda
 Entering Link 1 = /home/Data/zhangqian/application/g16/l1.exe PID=     65609.
  
 Copyright (c) 1988,1990,1992,1993,1995,1998,2003,2009,2016,
            Gaussian, Inc.  All Rights Reserved.
  
 This is part of the Gaussian(R) 16 program.  It is based on
 the Gaussian(R) 09 system (copyright 2009, Gaussian, Inc.),
 the Gaussian(R) 03 system (copyright 2003, Gaussian, Inc.),
 the Gaussian(R) 98 system (copyright 1998, Gaussian, Inc.),
 the Gaussian(R) 94 system (copyright 1995, Gaussian, Inc.),
 the Gaussian 92(TM) system (copyright 1992, Gaussian, Inc.),
 the Gaussian 90(TM) system (copyright 1990, Gaussian, Inc.),
 the Gaussian 88(TM) system (copyright 1988, Gaussian, Inc.),
 the Gaussian 86(TM) system (copyright 1986, Carnegie Mellon
 University), and the Gaussian 82(TM) system (copyright 1983,
 Carnegie Mellon University). Gaussian is a federally registered
 trademark of Gaussian, Inc.
  
 This software contains proprietary and confidential information,
 including trade secrets, belonging to Gaussian, Inc.
  
 This software is provided under written license and may be
 used, copied, transmitted, or stored only in accord with that
 written license.
  
 The following legend is applicable only to US Government
 contracts under FAR:
  
                    RESTRICTED RIGHTS LEGEND
  
 Use, reproduction and disclosure by the US Government is
 subject to restrictions as set forth in subparagraphs (a)
 and (c) of the Commercial Computer Software - Restricted
 Rights clause in FAR 52.227-19.
  
 Gaussian, Inc.
 340 Quinnipiac St., Bldg. 40, Wallingford CT 06492
  
  
 ---------------------------------------------------------------
 Warning -- This program may not be used in any manner that
 competes with the business of Gaussian, Inc. or will provide
 assistance to any competitor of Gaussian, Inc.  The licensee
 of this program is prohibited from giving any competitor of
 Gaussian, Inc. access to this program.  By using this program,
 the user acknowledges that Gaussian, Inc. is engaged in the
 business of creating and licensing software in the field of
 computational chemistry and represents and warrants to the
 licensee that it is not a competitor of Gaussian, Inc. and that
 it will not use this program in any manner prohibited above.
 ---------------------------------------------------------------
  

 Cite this work as:
 Gaussian 16, Revision A.03,
 M. J. Frisch, G. W. Trucks, H. B. Schlegel, G. E. Scuseria, 
 M. A. Robb, J. R. Cheeseman, G. Scalmani, V. Barone, 
 G. A. Petersson, H. Nakatsuji, X. Li, M. Caricato, A. V. Marenich, 
 J. Bloino, B. G. Janesko, R. Gomperts, B. Mennucci, H. P. Hratchian, 
 J. V. Ortiz, A. F. Izmaylov, J. L. Sonnenberg, D. Williams-Young, 
 F. Ding, F. Lipparini, F. Egidi, J. Goings, B. Peng, A. Petrone, 
 T. Henderson, D. Ranasinghe, V. G. Zakrzewski, J. Gao, N. Rega, 
 G. Zheng, W. Liang, M. Hada, M. Ehara, K. Toyota, R. Fukuda, 
 J. Hasegawa, M. Ishida, T. Nakajima, Y. Honda, O. Kitao, H. Nakai, 
 T. Vreven, K. Throssell, J. A. Montgomery, Jr., J. E. Peralta, 
 F. Ogliaro, M. J. Bearpark, J. J. Heyd, E. N. Brothers, K. N. Kudin, 
 V. N. Staroverov, T. A. Keith, R. Kobayashi, J. Normand, 
 K. Raghavachari, A. P. Rendell, J. C. Burant, S. S. Iyengar, 
 J. Tomasi, M. Cossi, J. M. Millam, M. Klene, C. Adamo, R. Cammi, 
 J. W. Ochterski, R. L. Martin, K. Morokuma, O. Farkas, 
 J. B. Foresman, and D. J. Fox, Gaussian, Inc., Wallingford CT, 2016.
 
 ******************************************
 Gaussian 16:  ES64L-G16RevA.03 25-Dec-2016
                 8-Nov-2023 
 ******************************************
 %nprocshared=24
 Will use up to   24 processors via shared memory.
 %mem=40GB
 %chk=resin1.chk
 ----------------------------------------------------------------------
 #p opt b3lyp/6-31g(d) scrf=(solvent=water,pcm) empiricaldispersion=gd3
 ----------------------------------------------------------------------
 1/18=20,19=15,26=3,38=1/1,3;
 2/9=110,12=2,17=6,18=5,40=1/2;
 3/5=1,6=6,7=1,11=2,25=1,30=1,70=2201,71=1,72=1,74=-5,124=31/1,2,3;
 4//1;
 5/5=2,38=5,53=1/2;
 6/7=2,8=2,9=2,10=2,28=1/1;
 7//1,2,3,16;
 1/18=20,19=15,26=3/3(2);
 2/9=110/2;
 99//99;
 2/9=110/2;
 3/5=1,6=6,7=1,11=2,25=1,30=1,70=2205,71=1,72=1,74=-5,124=31/1,2,3;
 4/5=5,16=3,69=1/1;
 5/5=2,38=5,53=1/2;
 7//1,2,3,16;
 1/18=20,19=15,26=3/3(-5);
 2/9=110/2;
 6/7=2,8=2,9=2,10=2,19=2,28=1/1;
 99/9=1/99;
 Leave Link    1 at Wed Nov  8 22:15:22 2023, MaxMem=  5368709120 cpu:               1.2 elap:               0.1
 (Enter /home/Data/zhangqian/application/g16/l101.exe)
 -------------------
 Title Card Required
 -------------------
 Symbolic Z-matrix:
 Charge =  0 Multiplicity = 1
 C                    -26.67762  -6.20934  -3.3005 
 C                    -25.28246  -6.20934  -3.3005 
 C                    -24.58493  -5.00159  -3.3005 
 C                    -25.28258  -3.79308  -3.3017 
 C                    -26.67741  -3.79316  -3.30218 
 C                    -27.37501  -5.00137  -3.30118 
 H                    -24.73296  -7.16185  -3.29919 
 H                    -28.47461  -5.00118  -3.30136 
 C                    -24.51208  -2.45969  -3.30178 
 C                    -23.04493  -5.00148  -3.29961 
 C                    -22.97208  -2.46028  -3.30178 
 C                    -22.20258  -3.79425  -3.3017 
 C                    -27.44774  -2.45968  -3.30351 
 C                    -25.28157  -1.12572  -3.30187 
 C                    -26.67808  -1.1258   -3.30485 
 C                    -22.20157  -1.12689  -3.30187 
 H                    -21.5692  -1.12718  -4.165 
 C                    -24.51136   0.20783  -3.29866 
 C                    -22.97107   0.20708  -3.30195 
 H                    -28.08012  -2.4607   -4.16665 
 H                    -28.08012  -2.45897  -2.44038 
 H                    -26.9925  -0.58014  -4.16989 
 H                    -26.99619  -0.57628  -2.44361 
 H                    -25.27924  -1.12439  -4.37186 
 H                    -24.8292   0.7587   -4.15914 
 H                    -24.82552   0.75242  -2.43285 
 H                    -22.6528   0.75572  -2.44021 
 H                    -22.65648   0.75349  -4.16646 
 H                    -21.5692  -1.12707  -2.43873 
 H                    -22.55004  -5.95015  -3.29731 
 H                    -21.13357  -3.84024  -3.30306 
 C                    -27.44756  -7.54306  -3.29987 
 H                    -27.60747  -7.86305  -4.3083 
 H                    -26.87862  -8.28308  -2.77683 
 C                    -28.80618  -7.35114  -2.60065 
 H                    -29.45042  -6.76963  -3.2265 
 H                    -28.65985  -6.84373  -1.67004 
 C                    -29.44819  -8.72646  -2.34003 
 H                    -29.5235  -9.26528  -3.26139 
 C                    -30.85426  -8.53174  -1.74282 
 H                    -31.45946  -7.97685  -2.42892 
 H                    -31.30161  -9.48729  -1.56478 
 H                    -30.77864  -7.99577  -0.81983 
 C                    -28.57573  -9.52103  -1.35054 
 H                    -27.73316  -9.93074  -1.86736 
 H                    -28.23501  -8.86979  -0.57291 
 H                    -29.15283  -10.31461  -0.92384 
 
 ITRead=  0  0  0  0  0  0  0  0  0  0  0  0  0  0  0  0  0  0  0  0
 ITRead=  0  0  0  0  0  0  0  0  0  0  0  0  0  0  0  0  0  0  0  0
 ITRead=  0  0  0  0  0  0  0
 MicOpt= -1 -1 -1 -1 -1 -1 -1 -1 -1 -1 -1 -1 -1 -1 -1 -1 -1 -1 -1 -1
 MicOpt= -1 -1 -1 -1 -1 -1 -1 -1 -1 -1 -1 -1 -1 -1 -1 -1 -1 -1 -1 -1
 MicOpt= -1 -1 -1 -1 -1 -1 -1
 NAtoms=     47 NQM=       47 NQMF=       0 NMMI=      0 NMMIF=      0
                NMic=       0 NMicF=      0.
                    Isotopes and Nuclear Properties:
 (Nuclear quadrupole moments (NQMom) in fm**2, nuclear magnetic moments (NMagM)
  in nuclear magnetons)

  Atom         1           2           3           4           5           6           7           8           9          10
 IAtWgt=          12          12          12          12          12          12           1           1          12          12
 AtmWgt=  12.0000000  12.0000000  12.0000000  12.0000000  12.0000000  12.0000000   1.0078250   1.0078250  12.0000000  12.0000000
 NucSpn=           0           0           0           0           0           0           1           1           0           0
 AtZEff=  -0.0000000  -0.0000000  -0.0000000  -0.0000000  -0.0000000  -0.0000000  -0.0000000  -0.0000000  -0.0000000  -0.0000000
 NQMom=    0.0000000   0.0000000   0.0000000   0.0000000   0.0000000   0.0000000   0.0000000   0.0000000   0.0000000   0.0000000
 NMagM=    0.0000000   0.0000000   0.0000000   0.0000000   0.0000000   0.0000000   2.7928460   2.7928460   0.0000000   0.0000000
 AtZNuc=   6.0000000   6.0000000   6.0000000   6.0000000   6.0000000   6.0000000   1.0000000   1.0000000   6.0000000   6.0000000

  Atom        11          12          13          14          15          16          17          18          19          20
 IAtWgt=          12          12          12          12          12          12           1          12          12           1
 AtmWgt=  12.0000000  12.0000000  12.0000000  12.0000000  12.0000000  12.0000000   1.0078250  12.0000000  12.0000000   1.0078250
 NucSpn=           0           0           0           0           0           0           1           0           0           1
 AtZEff=  -0.0000000  -0.0000000  -0.0000000  -0.0000000  -0.0000000  -0.0000000  -0.0000000  -0.0000000  -0.0000000  -0.0000000
 NQMom=    0.0000000   0.0000000   0.0000000   0.0000000   0.0000000   0.0000000   0.0000000   0.0000000   0.0000000   0.0000000
 NMagM=    0.0000000   0.0000000   0.0000000   0.0000000   0.0000000   0.0000000   2.7928460   0.0000000   0.0000000   2.7928460
 AtZNuc=   6.0000000   6.0000000   6.0000000   6.0000000   6.0000000   6.0000000   1.0000000   6.0000000   6.0000000   1.0000000

  Atom        21          22          23          24          25          26          27          28          29          30
 IAtWgt=           1           1           1           1           1           1           1           1           1           1
 AtmWgt=   1.0078250   1.0078250   1.0078250   1.0078250   1.0078250   1.0078250   1.0078250   1.0078250   1.0078250   1.0078250
 NucSpn=           1           1           1           1           1           1           1           1           1           1
 AtZEff=  -0.0000000  -0.0000000  -0.0000000  -0.0000000  -0.0000000  -0.0000000  -0.0000000  -0.0000000  -0.0000000  -0.0000000
 NQMom=    0.0000000   0.0000000   0.0000000   0.0000000   0.0000000   0.0000000   0.0000000   0.0000000   0.0000000   0.0000000
 NMagM=    2.7928460   2.7928460   2.7928460   2.7928460   2.7928460   2.7928460   2.7928460   2.7928460   2.7928460   2.7928460
 AtZNuc=   1.0000000   1.0000000   1.0000000   1.0000000   1.0000000   1.0000000   1.0000000   1.0000000   1.0000000   1.0000000

  Atom        31          32          33          34          35          36          37          38          39          40
 IAtWgt=           1          12           1           1          12           1           1          12           1          12
 AtmWgt=   1.0078250  12.0000000   1.0078250   1.0078250  12.0000000   1.0078250   1.0078250  12.0000000   1.0078250  12.0000000
 NucSpn=           1           0           1           1           0           1           1           0           1           0
 AtZEff=  -0.0000000  -0.0000000  -0.0000000  -0.0000000  -0.0000000  -0.0000000  -0.0000000  -0.0000000  -0.0000000  -0.0000000
 NQMom=    0.0000000   0.0000000   0.0000000   0.0000000   0.0000000   0.0000000   0.0000000   0.0000000   0.0000000   0.0000000
 NMagM=    2.7928460   0.0000000   2.7928460   2.7928460   0.0000000   2.7928460   2.7928460   0.0000000   2.7928460   0.0000000
 AtZNuc=   1.0000000   6.0000000   1.0000000   1.0000000   6.0000000   1.0000000   1.0000000   6.0000000   1.0000000   6.0000000

  Atom        41          42          43          44          45          46          47
 IAtWgt=           1           1           1          12           1           1           1
 AtmWgt=   1.0078250   1.0078250   1.0078250  12.0000000   1.0078250   1.0078250   1.0078250
 NucSpn=           1           1           1           0           1           1           1
 AtZEff=  -0.0000000  -0.0000000  -0.0000000  -0.0000000  -0.0000000  -0.0000000  -0.0000000
 NQMom=    0.0000000   0.0000000   0.0000000   0.0000000   0.0000000   0.0000000   0.0000000
 NMagM=    2.7928460   2.7928460   2.7928460   0.0000000   2.7928460   2.7928460   2.7928460
 AtZNuc=   1.0000000   1.0000000   1.0000000   6.0000000   1.0000000   1.0000000   1.0000000
 Leave Link  101 at Wed Nov  8 22:15:22 2023, MaxMem=  5368709120 cpu:              14.6 elap:               0.6
 (Enter /home/Data/zhangqian/application/g16/l103.exe)

 GradGradGradGradGradGradGradGradGradGradGradGradGradGradGradGradGradGrad
 Berny optimization.
 Initialization pass.
                           ----------------------------
                           !    Initial Parameters    !
                           ! (Angstroms and Degrees)  !
 --------------------------                            --------------------------
 ! Name  Definition              Value          Derivative Info.                !
 --------------------------------------------------------------------------------
 ! R1    R(1,2)                  1.3952         estimate D2E/DX2                !
 ! R2    R(1,6)                  1.3948         estimate D2E/DX2                !
 ! R3    R(1,32)                 1.54           estimate D2E/DX2                !
 ! R4    R(2,3)                  1.3947         estimate D2E/DX2                !
 ! R5    R(2,7)                  1.0997         estimate D2E/DX2                !
 ! R6    R(3,4)                  1.3954         estimate D2E/DX2                !
 ! R7    R(3,10)                 1.54           estimate D2E/DX2                !
 ! R8    R(4,5)                  1.3948         estimate D2E/DX2                !
 ! R9    R(4,9)                  1.54           estimate D2E/DX2                !
 ! R10   R(5,6)                  1.3951         estimate D2E/DX2                !
 ! R11   R(5,13)                 1.54           estimate D2E/DX2                !
 ! R12   R(6,8)                  1.0996         estimate D2E/DX2                !
 ! R13   R(9,11)                 1.54           estimate D2E/DX2                !
 ! R14   R(9,14)                 1.54           estimate D2E/DX2                !
 ! R15   R(10,12)                1.4721         estimate D2E/DX2                !
 ! R16   R(10,30)                1.07           estimate D2E/DX2                !
 ! R17   R(11,12)                1.54           estimate D2E/DX2                !
 ! R18   R(11,16)                1.54           estimate D2E/DX2                !
 ! R19   R(12,31)                1.07           estimate D2E/DX2                !
 ! R20   R(13,15)                1.54           estimate D2E/DX2                !
 ! R21   R(13,20)                1.07           estimate D2E/DX2                !
 ! R22   R(13,21)                1.07           estimate D2E/DX2                !
 ! R23   R(14,15)                1.3965         estimate D2E/DX2                !
 ! R24   R(14,18)                1.54           estimate D2E/DX2                !
 ! R25   R(14,24)                1.07           estimate D2E/DX2                !
 ! R26   R(15,22)                1.07           estimate D2E/DX2                !
 ! R27   R(15,23)                1.07           estimate D2E/DX2                !
 ! R28   R(16,17)                1.07           estimate D2E/DX2                !
 ! R29   R(16,19)                1.54           estimate D2E/DX2                !
 ! R30   R(16,29)                1.07           estimate D2E/DX2                !
 ! R31   R(18,19)                1.5403         estimate D2E/DX2                !
 ! R32   R(18,25)                1.07           estimate D2E/DX2                !
 ! R33   R(18,26)                1.07           estimate D2E/DX2                !
 ! R34   R(19,27)                1.07           estimate D2E/DX2                !
 ! R35   R(19,28)                1.07           estimate D2E/DX2                !
 ! R36   R(32,33)                1.07           estimate D2E/DX2                !
 ! R37   R(32,34)                1.07           estimate D2E/DX2                !
 ! R38   R(32,35)                1.54           estimate D2E/DX2                !
 ! R39   R(35,36)                1.07           estimate D2E/DX2                !
 ! R40   R(35,37)                1.07           estimate D2E/DX2                !
 ! R41   R(35,38)                1.54           estimate D2E/DX2                !
 ! R42   R(38,39)                1.07           estimate D2E/DX2                !
 ! R43   R(38,40)                1.54           estimate D2E/DX2                !
 ! R44   R(38,44)                1.54           estimate D2E/DX2                !
 ! R45   R(40,41)                1.07           estimate D2E/DX2                !
 ! R46   R(40,42)                1.07           estimate D2E/DX2                !
 ! R47   R(40,43)                1.07           estimate D2E/DX2                !
 ! R48   R(44,45)                1.07           estimate D2E/DX2                !
 ! R49   R(44,46)                1.07           estimate D2E/DX2                !
 ! R50   R(44,47)                1.07           estimate D2E/DX2                !
 ! A1    A(2,1,6)              119.9985         estimate D2E/DX2                !
 ! A2    A(2,1,32)             119.9972         estimate D2E/DX2                !
 ! A3    A(6,1,32)             120.0043         estimate D2E/DX2                !
 ! A4    A(1,2,3)              120.0086         estimate D2E/DX2                !
 ! A5    A(1,2,7)              119.9808         estimate D2E/DX2                !
 ! A6    A(3,2,7)              120.0106         estimate D2E/DX2                !
 ! A7    A(2,3,4)              119.9942         estimate D2E/DX2                !
 ! A8    A(2,3,10)             120.0128         estimate D2E/DX2                !
 ! A9    A(4,3,10)             119.993          estimate D2E/DX2                !
 ! A10   A(3,4,5)              119.994          estimate D2E/DX2                !
 ! A11   A(3,4,9)              119.9811         estimate D2E/DX2                !
 ! A12   A(5,4,9)              120.0249         estimate D2E/DX2                !
 ! A13   A(4,5,6)              120.0047         estimate D2E/DX2                !
 ! A14   A(4,5,13)             120.0113         estimate D2E/DX2                !
 ! A15   A(6,5,13)             119.984          estimate D2E/DX2                !
 ! A16   A(1,6,5)              120.0            estimate D2E/DX2                !
 ! A17   A(1,6,8)              120.008          estimate D2E/DX2                !
 ! A18   A(5,6,8)              119.992          estimate D2E/DX2                !
 ! A19   A(4,9,11)             120.0            estimate D2E/DX2                !
 ! A20   A(4,9,14)             120.0            estimate D2E/DX2                !
 ! A21   A(11,9,14)            120.0            estimate D2E/DX2                !
 ! A22   A(3,10,12)            124.9095         estimate D2E/DX2                !
 ! A23   A(3,10,30)            117.5453         estimate D2E/DX2                !
 ! A24   A(12,10,30)           117.5453         estimate D2E/DX2                !
 ! A25   A(9,11,12)            120.0            estimate D2E/DX2                !
 ! A26   A(9,11,16)            120.0            estimate D2E/DX2                !
 ! A27   A(12,11,16)           120.0            estimate D2E/DX2                !
 ! A28   A(10,12,11)           115.1162         estimate D2E/DX2                !
 ! A29   A(10,12,31)           122.4419         estimate D2E/DX2                !
 ! A30   A(11,12,31)           122.4419         estimate D2E/DX2                !
 ! A31   A(5,13,15)            120.0            estimate D2E/DX2                !
 ! A32   A(5,13,20)            107.1877         estimate D2E/DX2                !
 ! A33   A(5,13,21)            107.1877         estimate D2E/DX2                !
 ! A34   A(15,13,20)           107.1877         estimate D2E/DX2                !
 ! A35   A(15,13,21)           107.1877         estimate D2E/DX2                !
 ! A36   A(20,13,21)           107.5431         estimate D2E/DX2                !
 ! A37   A(9,14,15)            119.975          estimate D2E/DX2                !
 ! A38   A(9,14,18)            120.0125         estimate D2E/DX2                !
 ! A39   A(9,14,24)             90.0025         estimate D2E/DX2                !
 ! A40   A(15,14,18)           120.0125         estimate D2E/DX2                !
 ! A41   A(15,14,24)            90.0024         estimate D2E/DX2                !
 ! A42   A(18,14,24)            89.9951         estimate D2E/DX2                !
 ! A43   A(13,15,14)           119.9885         estimate D2E/DX2                !
 ! A44   A(13,15,22)           107.1904         estimate D2E/DX2                !
 ! A45   A(13,15,23)           107.1904         estimate D2E/DX2                !
 ! A46   A(14,15,22)           107.1904         estimate D2E/DX2                !
 ! A47   A(14,15,23)           107.1904         estimate D2E/DX2                !
 ! A48   A(22,15,23)           107.545          estimate D2E/DX2                !
 ! A49   A(11,16,17)           107.1877         estimate D2E/DX2                !
 ! A50   A(11,16,19)           120.0            estimate D2E/DX2                !
 ! A51   A(11,16,29)           107.1877         estimate D2E/DX2                !
 ! A52   A(17,16,19)           107.1877         estimate D2E/DX2                !
 ! A53   A(17,16,29)           107.5431         estimate D2E/DX2                !
 ! A54   A(19,16,29)           107.1877         estimate D2E/DX2                !
 ! A55   A(14,18,19)           119.9808         estimate D2E/DX2                !
 ! A56   A(14,18,25)           107.1922         estimate D2E/DX2                !
 ! A57   A(14,18,26)           107.1922         estimate D2E/DX2                !
 ! A58   A(19,18,25)           107.1922         estimate D2E/DX2                !
 ! A59   A(19,18,26)           107.1922         estimate D2E/DX2                !
 ! A60   A(25,18,26)           107.5462         estimate D2E/DX2                !
 ! A61   A(16,19,18)           120.0061         estimate D2E/DX2                !
 ! A62   A(16,19,27)           107.1863         estimate D2E/DX2                !
 ! A63   A(16,19,28)           107.1863         estimate D2E/DX2                !
 ! A64   A(18,19,27)           107.1863         estimate D2E/DX2                !
 ! A65   A(18,19,28)           107.1863         estimate D2E/DX2                !
 ! A66   A(27,19,28)           107.5421         estimate D2E/DX2                !
 ! A67   A(1,32,33)            109.4712         estimate D2E/DX2                !
 ! A68   A(1,32,34)            109.4712         estimate D2E/DX2                !
 ! A69   A(1,32,35)            109.4712         estimate D2E/DX2                !
 ! A70   A(33,32,34)           109.4713         estimate D2E/DX2                !
 ! A71   A(33,32,35)           109.4712         estimate D2E/DX2                !
 ! A72   A(34,32,35)           109.4712         estimate D2E/DX2                !
 ! A73   A(32,35,36)           109.4712         estimate D2E/DX2                !
 ! A74   A(32,35,37)           109.4712         estimate D2E/DX2                !
 ! A75   A(32,35,38)           109.4712         estimate D2E/DX2                !
 ! A76   A(36,35,37)           109.4712         estimate D2E/DX2                !
 ! A77   A(36,35,38)           109.4713         estimate D2E/DX2                !
 ! A78   A(37,35,38)           109.4712         estimate D2E/DX2                !
 ! A79   A(35,38,39)           109.4712         estimate D2E/DX2                !
 ! A80   A(35,38,40)           109.4712         estimate D2E/DX2                !
 ! A81   A(35,38,44)           109.4712         estimate D2E/DX2                !
 ! A82   A(39,38,40)           109.4713         estimate D2E/DX2                !
 ! A83   A(39,38,44)           109.4712         estimate D2E/DX2                !
 ! A84   A(40,38,44)           109.4712         estimate D2E/DX2                !
 ! A85   A(38,40,41)           109.4712         estimate D2E/DX2                !
 ! A86   A(38,40,42)           109.4712         estimate D2E/DX2                !
 ! A87   A(38,40,43)           109.4712         estimate D2E/DX2                !
 ! A88   A(41,40,42)           109.4713         estimate D2E/DX2                !
 ! A89   A(41,40,43)           109.4712         estimate D2E/DX2                !
 ! A90   A(42,40,43)           109.4712         estimate D2E/DX2                !
 ! A91   A(38,44,45)           109.4712         estimate D2E/DX2                !
 ! A92   A(38,44,46)           109.4712         estimate D2E/DX2                !
 ! A93   A(38,44,47)           109.4712         estimate D2E/DX2                !
 ! A94   A(45,44,46)           109.4713         estimate D2E/DX2                !
 ! A95   A(45,44,47)           109.4712         estimate D2E/DX2                !
 ! A96   A(46,44,47)           109.4712         estimate D2E/DX2                !
 ! D1    D(6,1,2,3)              0.0323         estimate D2E/DX2                !
 ! D2    D(6,1,2,7)            179.9532         estimate D2E/DX2                !
 ! D3    D(32,1,2,3)          -179.9729         estimate D2E/DX2                !
 ! D4    D(32,1,2,7)            -0.052          estimate D2E/DX2                !
 ! D5    D(2,1,6,5)              0.0149         estimate D2E/DX2                !
 ! D6    D(2,1,6,8)            179.9892         estimate D2E/DX2                !
 ! D7    D(32,1,6,5)          -179.9798         estimate D2E/DX2                !
 ! D8    D(32,1,6,8)            -0.0056         estimate D2E/DX2                !
 ! D9    D(2,1,32,33)          -88.793          estimate D2E/DX2                !
 ! D10   D(2,1,32,34)           31.207          estimate D2E/DX2                !
 ! D11   D(2,1,32,35)          151.207          estimate D2E/DX2                !
 ! D12   D(6,1,32,33)           91.2017         estimate D2E/DX2                !
 ! D13   D(6,1,32,34)         -148.7983         estimate D2E/DX2                !
 ! D14   D(6,1,32,35)          -28.7983         estimate D2E/DX2                !
 ! D15   D(1,2,3,4)             -0.0568         estimate D2E/DX2                !
 ! D16   D(1,2,3,10)           179.9619         estimate D2E/DX2                !
 ! D17   D(7,2,3,4)           -179.9777         estimate D2E/DX2                !
 ! D18   D(7,2,3,10)             0.041          estimate D2E/DX2                !
 ! D19   D(2,3,4,5)              0.0341         estimate D2E/DX2                !
 ! D20   D(2,3,4,9)           -179.9964         estimate D2E/DX2                !
 ! D21   D(10,3,4,5)          -179.9846         estimate D2E/DX2                !
 ! D22   D(10,3,4,9)            -0.0151         estimate D2E/DX2                !
 ! D23   D(2,3,10,12)          179.897          estimate D2E/DX2                !
 ! D24   D(2,3,10,30)           -0.103          estimate D2E/DX2                !
 ! D25   D(4,3,10,12)           -0.0843         estimate D2E/DX2                !
 ! D26   D(4,3,10,30)          179.9157         estimate D2E/DX2                !
 ! D27   D(3,4,5,6)              0.0131         estimate D2E/DX2                !
 ! D28   D(3,4,5,13)          -179.9995         estimate D2E/DX2                !
 ! D29   D(9,4,5,6)           -179.9563         estimate D2E/DX2                !
 ! D30   D(9,4,5,13)             0.0311         estimate D2E/DX2                !
 ! D31   D(3,4,9,11)             0.0533         estimate D2E/DX2                !
 ! D32   D(3,4,9,14)          -179.9467         estimate D2E/DX2                !
 ! D33   D(5,4,9,11)          -179.9773         estimate D2E/DX2                !
 ! D34   D(5,4,9,14)             0.0227         estimate D2E/DX2                !
 ! D35   D(4,5,6,1)             -0.0376         estimate D2E/DX2                !
 ! D36   D(4,5,6,8)            179.9881         estimate D2E/DX2                !
 ! D37   D(13,5,6,1)           179.975          estimate D2E/DX2                !
 ! D38   D(13,5,6,8)             0.0007         estimate D2E/DX2                !
 ! D39   D(4,5,13,15)            0.0227         estimate D2E/DX2                !
 ! D40   D(4,5,13,20)          122.4177         estimate D2E/DX2                !
 ! D41   D(4,5,13,21)         -122.3722         estimate D2E/DX2                !
 ! D42   D(6,5,13,15)         -179.9899         estimate D2E/DX2                !
 ! D43   D(6,5,13,20)          -57.5949         estimate D2E/DX2                !
 ! D44   D(6,5,13,21)           57.6152         estimate D2E/DX2                !
 ! D45   D(4,9,11,12)            0.0            estimate D2E/DX2                !
 ! D46   D(4,9,11,16)         -180.0            estimate D2E/DX2                !
 ! D47   D(14,9,11,12)         180.0            estimate D2E/DX2                !
 ! D48   D(14,9,11,16)           0.0            estimate D2E/DX2                !
 ! D49   D(4,9,14,15)           -0.1413         estimate D2E/DX2                !
 ! D50   D(4,9,14,18)          179.8587         estimate D2E/DX2                !
 ! D51   D(4,9,14,24)          -90.1455         estimate D2E/DX2                !
 ! D52   D(11,9,14,15)         179.8587         estimate D2E/DX2                !
 ! D53   D(11,9,14,18)          -0.1413         estimate D2E/DX2                !
 ! D54   D(11,9,14,24)          89.8545         estimate D2E/DX2                !
 ! D55   D(3,10,12,11)           0.1316         estimate D2E/DX2                !
 ! D56   D(3,10,12,31)        -179.8684         estimate D2E/DX2                !
 ! D57   D(30,10,12,11)       -179.8684         estimate D2E/DX2                !
 ! D58   D(30,10,12,31)          0.1316         estimate D2E/DX2                !
 ! D59   D(9,11,12,10)          -0.0865         estimate D2E/DX2                !
 ! D60   D(9,11,12,31)         179.9135         estimate D2E/DX2                !
 ! D61   D(16,11,12,10)        179.9135         estimate D2E/DX2                !
 ! D62   D(16,11,12,31)         -0.0865         estimate D2E/DX2                !
 ! D63   D(9,11,16,17)        -122.3949         estimate D2E/DX2                !
 ! D64   D(9,11,16,19)           0.0            estimate D2E/DX2                !
 ! D65   D(9,11,16,29)         122.3949         estimate D2E/DX2                !
 ! D66   D(12,11,16,17)         57.6051         estimate D2E/DX2                !
 ! D67   D(12,11,16,19)        180.0            estimate D2E/DX2                !
 ! D68   D(12,11,16,29)        -57.6051         estimate D2E/DX2                !
 ! D69   D(5,13,15,14)          -0.1413         estimate D2E/DX2                !
 ! D70   D(5,13,15,22)         122.2512         estimate D2E/DX2                !
 ! D71   D(5,13,15,23)        -122.5339         estimate D2E/DX2                !
 ! D72   D(20,13,15,14)       -122.5363         estimate D2E/DX2                !
 ! D73   D(20,13,15,22)         -0.1437         estimate D2E/DX2                !
 ! D74   D(20,13,15,23)        115.0712         estimate D2E/DX2                !
 ! D75   D(21,13,15,14)        122.2536         estimate D2E/DX2                !
 ! D76   D(21,13,15,22)       -115.3538         estimate D2E/DX2                !
 ! D77   D(21,13,15,23)         -0.1389         estimate D2E/DX2                !
 ! D78   D(9,14,15,13)           0.195          estimate D2E/DX2                !
 ! D79   D(9,14,15,22)        -122.1975         estimate D2E/DX2                !
 ! D80   D(9,14,15,23)         122.5876         estimate D2E/DX2                !
 ! D81   D(18,14,15,13)       -179.805          estimate D2E/DX2                !
 ! D82   D(18,14,15,22)         57.8025         estimate D2E/DX2                !
 ! D83   D(18,14,15,23)        -57.4124         estimate D2E/DX2                !
 ! D84   D(24,14,15,13)         90.1993         estimate D2E/DX2                !
 ! D85   D(24,14,15,22)        -32.1933         estimate D2E/DX2                !
 ! D86   D(24,14,15,23)       -147.4082         estimate D2E/DX2                !
 ! D87   D(9,14,18,19)           0.2825         estimate D2E/DX2                !
 ! D88   D(9,14,18,25)         122.6734         estimate D2E/DX2                !
 ! D89   D(9,14,18,26)        -122.1085         estimate D2E/DX2                !
 ! D90   D(15,14,18,19)       -179.7175         estimate D2E/DX2                !
 ! D91   D(15,14,18,25)        -57.3266         estimate D2E/DX2                !
 ! D92   D(15,14,18,26)         57.8915         estimate D2E/DX2                !
 ! D93   D(24,14,18,19)        -89.7175         estimate D2E/DX2                !
 ! D94   D(24,14,18,25)         32.6734         estimate D2E/DX2                !
 ! D95   D(24,14,18,26)        147.8915         estimate D2E/DX2                !
 ! D96   D(11,16,19,18)          0.1413         estimate D2E/DX2                !
 ! D97   D(11,16,19,27)        122.5375         estimate D2E/DX2                !
 ! D98   D(11,16,19,28)       -122.255          estimate D2E/DX2                !
 ! D99   D(17,16,19,18)        122.5362         estimate D2E/DX2                !
 ! D100  D(17,16,19,27)       -115.0676         estimate D2E/DX2                !
 ! D101  D(17,16,19,28)          0.14           estimate D2E/DX2                !
 ! D102  D(29,16,19,18)       -122.2537         estimate D2E/DX2                !
 ! D103  D(29,16,19,27)          0.1425         estimate D2E/DX2                !
 ! D104  D(29,16,19,28)        115.3501         estimate D2E/DX2                !
 ! D105  D(14,18,19,16)         -0.2824         estimate D2E/DX2                !
 ! D106  D(14,18,19,27)       -122.6787         estimate D2E/DX2                !
 ! D107  D(14,18,19,28)        122.1138         estimate D2E/DX2                !
 ! D108  D(25,18,19,16)       -122.6734         estimate D2E/DX2                !
 ! D109  D(25,18,19,27)        114.9304         estimate D2E/DX2                !
 ! D110  D(25,18,19,28)         -0.2772         estimate D2E/DX2                !
 ! D111  D(26,18,19,16)        122.1085         estimate D2E/DX2                !
 ! D112  D(26,18,19,27)         -0.2877         estimate D2E/DX2                !
 ! D113  D(26,18,19,28)       -115.4953         estimate D2E/DX2                !
 ! D114  D(1,32,35,36)          71.5714         estimate D2E/DX2                !
 ! D115  D(1,32,35,37)         -48.4286         estimate D2E/DX2                !
 ! D116  D(1,32,35,38)        -168.4286         estimate D2E/DX2                !
 ! D117  D(33,32,35,36)        -48.4286         estimate D2E/DX2                !
 ! D118  D(33,32,35,37)       -168.4286         estimate D2E/DX2                !
 ! D119  D(33,32,35,38)         71.5714         estimate D2E/DX2                !
 ! D120  D(34,32,35,36)       -168.4286         estimate D2E/DX2                !
 ! D121  D(34,32,35,37)         71.5714         estimate D2E/DX2                !
 ! D122  D(34,32,35,38)        -48.4286         estimate D2E/DX2                !
 ! D123  D(32,35,38,39)        -55.5574         estimate D2E/DX2                !
 ! D124  D(32,35,38,40)       -175.5574         estimate D2E/DX2                !
 ! D125  D(32,35,38,44)         64.4426         estimate D2E/DX2                !
 ! D126  D(36,35,38,39)         64.4426         estimate D2E/DX2                !
 ! D127  D(36,35,38,40)        -55.5575         estimate D2E/DX2                !
 ! D128  D(36,35,38,44)       -175.5575         estimate D2E/DX2                !
 ! D129  D(37,35,38,39)       -175.5574         estimate D2E/DX2                !
 ! D130  D(37,35,38,40)         64.4426         estimate D2E/DX2                !
 ! D131  D(37,35,38,44)        -55.5574         estimate D2E/DX2                !
 ! D132  D(35,38,40,41)         59.8127         estimate D2E/DX2                !
 ! D133  D(35,38,40,42)        179.8127         estimate D2E/DX2                !
 ! D134  D(35,38,40,43)        -60.1873         estimate D2E/DX2                !
 ! D135  D(39,38,40,41)        -60.1873         estimate D2E/DX2                !
 ! D136  D(39,38,40,42)         59.8127         estimate D2E/DX2                !
 ! D137  D(39,38,40,43)        179.8127         estimate D2E/DX2                !
 ! D138  D(44,38,40,41)        179.8127         estimate D2E/DX2                !
 ! D139  D(44,38,40,42)        -60.1873         estimate D2E/DX2                !
 ! D140  D(44,38,40,43)         59.8127         estimate D2E/DX2                !
 ! D141  D(35,38,44,45)        -78.3719         estimate D2E/DX2                !
 ! D142  D(35,38,44,46)         41.6281         estimate D2E/DX2                !
 ! D143  D(35,38,44,47)        161.6281         estimate D2E/DX2                !
 ! D144  D(39,38,44,45)         41.6281         estimate D2E/DX2                !
 ! D145  D(39,38,44,46)        161.6281         estimate D2E/DX2                !
 ! D146  D(39,38,44,47)        -78.3719         estimate D2E/DX2                !
 ! D147  D(40,38,44,45)        161.6281         estimate D2E/DX2                !
 ! D148  D(40,38,44,46)        -78.3718         estimate D2E/DX2                !
 ! D149  D(40,38,44,47)         41.6281         estimate D2E/DX2                !
 --------------------------------------------------------------------------------
 Trust Radius=3.00D-01 FncErr=1.00D-07 GrdErr=1.00D-06 EigMax=2.50D+02 EigMin=1.00D-04
 Number of steps in this run=    282 maximum allowed number of steps=    282.
 GradGradGradGradGradGradGradGradGradGradGradGradGradGradGradGradGradGrad

 Leave Link  103 at Wed Nov  8 22:15:22 2023, MaxMem=  5368709120 cpu:               0.3 elap:               0.0
 (Enter /home/Data/zhangqian/application/g16/l202.exe)
                          Input orientation:                          
 ---------------------------------------------------------------------
 Center     Atomic      Atomic             Coordinates (Angstroms)
 Number     Number       Type             X           Y           Z
 ---------------------------------------------------------------------
      1          6           0      -26.677624   -6.209342   -3.300502
      2          6           0      -25.282464   -6.209342   -3.300502
      3          6           0      -24.584926   -5.001591   -3.300502
      4          6           0      -25.282580   -3.793082   -3.301701
      5          6           0      -26.677405   -3.793160   -3.302180
      6          6           0      -27.375006   -5.001366   -3.301184
      7          1           0      -24.732956   -7.161855   -3.299187
      8          1           0      -28.474610   -5.001183   -3.301364
      9          6           0      -24.512076   -2.459694   -3.301784
     10          6           0      -23.044926   -5.001479   -3.299615
     11          6           0      -22.972076   -2.460276   -3.301784
     12          6           0      -22.202580   -3.794246   -3.301701
     13          6           0      -27.447743   -2.459676   -3.303515
     14          6           0      -25.281572   -1.125723   -3.301867
     15          6           0      -26.678082   -1.125803   -3.304850
     16          6           0      -22.201572   -1.126888   -3.301867
     17          1           0      -21.569195   -1.127180   -4.165000
     18          6           0      -24.511362    0.207831   -3.298661
     19          6           0      -22.971068    0.207082   -3.301949
     20          1           0      -28.080120   -2.460701   -4.166648
     21          1           0      -28.080120   -2.458973   -2.440382
     22          1           0      -26.992502   -0.580139   -4.169888
     23          1           0      -26.996189   -0.576284   -2.443609
     24          1           0      -25.279241   -1.124392   -4.371863
     25          1           0      -24.829200    0.758700   -4.159139
     26          1           0      -24.825518    0.752423   -2.432852
     27          1           0      -22.652798    0.755723   -2.440208
     28          1           0      -22.656484    0.753489   -4.166459
     29          1           0      -21.569195   -1.127073   -2.438733
     30          1           0      -22.550038   -5.950151   -3.297308
     31          1           0      -21.133570   -3.840239   -3.303062
     32          6           0      -27.447560   -7.543058   -3.299872
     33          1           0      -27.607475   -7.863049   -4.308303
     34          1           0      -26.878622   -8.283082   -2.776829
     35          6           0      -28.806181   -7.351145   -2.600647
     36          1           0      -29.450424   -6.769634   -3.226504
     37          1           0      -28.659847   -6.843733   -1.670045
     38          6           0      -29.448187   -8.726465   -2.340027
     39          1           0      -29.523500   -9.265278   -3.261389
     40          6           0      -30.854255   -8.531736   -1.742823
     41          1           0      -31.459458   -7.976853   -2.428923
     42          1           0      -31.301610   -9.487286   -1.564780
     43          1           0      -30.778641   -7.995772   -0.819825
     44          6           0      -28.575728   -9.521026   -1.350537
     45          1           0      -27.733156   -9.930744   -1.867358
     46          1           0      -28.235008   -8.869788   -0.572914
     47          1           0      -29.152833  -10.314611   -0.923838
 ---------------------------------------------------------------------
                    Distance matrix (angstroms):
                    1          2          3          4          5
     1  C    0.000000
     2  C    1.395160   0.000000
     3  C    2.416205   1.394712   0.000000
     4  C    2.790065   2.416260   1.395427   0.000000
     5  C    2.416183   2.789946   2.416356   1.394825   0.000000
     6  C    1.394829   2.416183   2.790080   2.416236   1.395138
     7  H    2.165414   1.099655   2.165330   3.413316   3.889601
     8  H    2.165365   3.413128   3.889684   3.412999   2.165471
     9  C    4.330065   3.827971   2.542941   1.540000   2.542987
    10  C    3.828241   2.542737   1.540000   2.543093   3.828178
    11  C    5.271298   4.403793   3.009912   2.667358   3.937771
    12  C    5.085146   3.913869   2.670815   3.080000   4.474825
    13  C    3.827934   4.329946   3.828454   2.542814   1.540000
    14  C    5.271825   5.083618   3.937977   2.667358   3.010576
    15  C    5.083541   5.271635   4.404889   3.010284   2.667358
    16  C    6.772472   5.943335   4.549033   4.074457   5.209807
    17  H    7.257532   6.353274   4.985283   4.652047   5.826295
    18  C    6.772946   6.463335   5.209941   4.074566   4.549690
    19  C    7.410065   6.820048   5.452964   4.620000   5.453336
    20  H    4.095060   4.757037   4.407120   3.217080   2.119047
    21  H    4.095371   4.757305   4.406937   3.216823   2.119047
    22  H    5.704638   5.947098   5.108961   3.741735   3.343008
    23  H    5.706758   5.949997   5.111927   3.744405   3.344706
    24  H    5.381450   5.196589   4.081979   2.875267   3.197093
    25  H    7.259995   7.035361   5.829054   4.653973   4.986949
    26  H    7.255983   7.030490   5.824034   4.650314   4.984731
    27  H    8.090207   7.494489   6.133505   5.324429   6.134557
    28  H    8.087055   7.491773   6.131045   5.321230   6.130807
    29  H    7.257282   6.352988   4.984893   4.652047   5.826437
    30  H    4.135717   2.744694   2.245117   3.481344   4.657016
    31  H    6.029029   4.777654   3.641511   4.149278   5.544035
    32  C    1.540000   2.542919   3.828019   4.330065   3.828169
    33  H    2.148263   3.025902   4.282453   4.794061   4.294335
    34  H    2.148263   2.668773   4.037754   4.794053   4.525029
    35  C    2.514810   3.769628   4.881516   5.056388   4.205127
    36  H    2.829809   4.206101   5.177308   5.122152   4.068754
    37  H    2.643871   3.803625   4.759923   4.834740   3.987473
    38  C    3.864510   4.961015   6.200686   6.528045   5.739379
    39  H    4.176037   5.227491   6.524574   6.923291   6.168144
    40  C    5.026344   6.234159   7.361575   7.478537   6.506288
    41  H    5.172009   6.483749   7.541288   7.511292   6.413571
    42  H    5.927807   7.070202   8.261237   8.465788   7.538229
    43  H    5.115020   6.289122   7.313070   7.350442   6.375278
    44  C    4.286306   5.061147   6.336731   6.889210   6.342002
    45  H    4.125153   4.680665   6.021778   6.762659   6.390874
    46  H    4.116206   4.820293   5.977105   6.475805   5.970525
    47  H    5.350554   6.122216   7.398817   7.947543   7.369775
                    6          7          8          9         10
     6  C    0.000000
     7  H    3.412938   0.000000
     8  H    1.099604   4.320704   0.000000
     9  C    3.828376   4.707347   4.707530   0.000000
    10  C    4.330080   2.741654   5.429684   2.934826   0.000000
    11  C    5.083594   5.020513   6.060865   1.540000   2.542248
    12  C    5.311415   4.212315   6.387101   2.667358   1.472060
    13  C    2.542731   5.429601   2.741115   2.935668   5.083854
    14  C    4.404891   6.061012   5.021422   1.540000   4.474826
    15  C    3.937728   6.341724   4.271545   2.543787   5.312316
    16  C    6.463436   6.544367   7.373003   2.667358   3.965313
    17  H    7.032989   6.868501   7.964830   3.343842   4.235193
    18  C    5.944425   7.373016   6.545316   2.667526   5.411777
    19  C    6.820748   7.576641   7.577269   3.080000   5.209085
    20  H    2.775102   5.835824   2.712635   3.671366   5.706179
    21  H    2.775235   5.835936   2.712885   3.670552   5.705768
    22  H    4.521968   7.013034   4.743058   3.230919   5.990740
    23  H    4.523305   7.015980   4.743543   3.233344   5.993961
    24  H    4.535362   6.156299   5.136717   1.875271   4.601486
    25  H    6.355751   7.967682   6.870301   3.345696   6.091147
    26  H    6.352950   7.962091   6.868345   3.342302   6.085160
    27  H    7.495638   8.231217   8.232682   3.812890   5.834185
    28  H    7.492096   8.229007   8.228926   3.809912   5.832835
    29  H    7.032880   6.867922   7.964773   3.343842   4.234373
    30  H    4.917370   2.496670   6.000093   4.004112   1.070000
    31  H    6.348523   4.897829   7.432272   3.649686   2.236464
    32  C    2.542728   2.741238   2.741526   5.870065   5.083582
    33  H    3.042624   3.126155   3.155333   6.307997   5.479314
    34  H    3.360209   2.476669   3.686893   6.307770   5.073406
    35  C    2.839098   4.137022   2.474523   6.546543   6.261114
    36  H    2.727583   4.734302   2.021197   6.555038   6.645458
    37  H    2.775924   4.263306   2.467896   6.251910   6.129987
    38  C    4.370156   5.059782   3.968596   8.035085   7.469811
    39  H    4.774783   5.232125   4.391387   8.451744   7.755860
    40  C    5.195881   6.462906   4.533936   8.917584   8.710450
    41  H    5.128071   6.831355   4.304077   8.914429   8.967457
    42  H    6.209412   7.180739   5.579675   9.924817   9.555362
    43  H    5.168012   6.587334   4.520416   8.722277   8.655951
    44  C    5.066960   4.912212   4.923915   8.377532   7.403714
    45  H    5.146154   4.326440   5.187167   8.261327   6.951871
    46  H    4.811211   4.755414   4.740037   7.899130   7.023934
    47  H    6.086298   5.926000   5.860473   9.428202   8.436837
                   11         12         13         14         15
    11  C    0.000000
    12  C    1.540000   0.000000
    13  C    4.475668   5.412284   0.000000
    14  C    2.667358   4.074457   2.543960   0.000000
    15  C    3.938947   5.210634   1.540000   1.396513   0.000000
    16  C    1.540000   2.667358   5.412822   3.080000   4.476511
    17  H    2.119047   2.873969   6.088927   3.811396   5.180789
    18  C    3.080292   4.620292   3.967109   1.540000   2.544266
    19  C    2.667358   4.074457   5.210780   2.667358   3.939358
    20  H    5.180743   6.088674   1.070000   3.218988   2.119047
    21  H    5.180167   6.088538   1.070000   3.217388   2.119047
    22  H    4.522426   5.833316   2.119082   1.994594   1.070000
    23  H    4.525415   5.836976   2.119082   1.994594   1.070000
    24  H    2.872745   4.211793   2.761658   1.070000   1.759340
    25  H    3.813892   5.325753   4.236367   2.119105   2.774801
    26  H    3.809426   5.320423   4.236945   2.119105   2.778507
    27  H    3.344682   4.652642   5.837430   3.345556   4.526660
    28  H    3.342985   4.651422   5.833118   3.342162   4.521875
    29  H    2.119047   2.873969   6.089418   3.811396   5.181783
    30  H    3.515305   2.183729   6.014231   5.544042   6.349420
    31  H    2.298783   1.070000   6.463338   4.957269   6.173311
    32  C    6.772343   6.446968   5.083383   6.773012   6.463226
    33  H    7.189573   6.839685   5.498322   7.198215   6.874676
    34  H    7.031482   6.503115   5.874806   7.352143   7.179531
    35  C    7.645193   7.533296   5.125021   7.188216   6.616615
    36  H    7.781081   7.835166   4.753145   7.017031   6.288469
    37  H    7.363967   7.325160   4.832947   6.838949   6.268549
    38  C    9.062567   8.817620   6.648513   8.721071   8.147051
    39  H    9.446208   9.139458   7.115248   9.178667   8.622607
    40  C   10.070836   9.986260   7.135124   9.398640   8.644548
    41  H   10.160224  10.195378   6.877354   9.266406   8.400339
    42  H   11.035270  10.872899   8.201389  10.448638   9.711810
    43  H    9.886571   9.867186   6.921846   9.141984   8.377733
    44  C    9.222932   8.787495   7.412768   9.227148   8.826107
    45  H    8.974038   8.384582   7.613203   9.251836   8.983682
    46  H    8.730809   8.342516   7.011811   8.725852   8.358038
    47  H   10.273605   9.822190   8.382732  10.250724   9.809578
                   16         17         18         19         20
    16  C    0.000000
    17  H    1.070000   0.000000
    18  C    2.667698   3.345017   0.000000
    19  C    1.540000   2.119047   1.540298   0.000000
    20  H    6.089682   6.646083   4.539878   5.828137   0.000000
    21  H    6.088837   6.865867   4.537017   5.826883   1.726267
    22  H    4.899531   5.450828   2.745175   4.188671   2.172426
    23  H    4.901849   5.720047   2.742320   4.189512   2.773950
    24  H    3.258365   3.715809   1.875158   2.871446   3.110106
    25  H    3.345861   3.766193   1.070000   2.119366   4.575268
    26  H    3.342467   4.139672   1.070000   2.119366   4.891078
    27  H    2.119029   2.773883   2.119289   1.070000   6.540780
    28  H    2.119029   2.172353   2.119289   1.070000   6.304510
    29  H    1.070000   1.726267   3.343320   2.119047   6.867051
    30  H    4.835837   4.997599   6.462781   6.171614   6.596501
    31  H    2.915974   2.879825   5.272226   4.444908   7.134666
    32  C    8.287800   8.744547   8.288397   8.950064   5.194400
    33  H    8.695549   9.047280   8.703125   9.361412   5.424834
    34  H    8.565137   9.017979   8.830165   9.360962   6.105352
    35  C    9.102414   9.672585   8.721858   9.574297   5.186132
    36  H    9.186518   9.738163   8.548950   9.521676   4.618280
    37  H    8.778068   9.443576   8.341875   9.205396   5.077409
    38  C   10.544768  11.097665  10.252456  11.076400   6.668430
    39  H   10.947404  11.415608  10.717402  11.517883   7.014635
    40  C   11.494839  12.120509  10.910222  11.871919   7.101283
    41  H   11.549567  12.155216  10.771329  11.823355   6.698324
    42  H   12.478959  13.090928  11.962821  12.899475   8.156017
    43  H   11.265355  11.965853  10.617086  11.593358   7.008584
    44  C   10.719100  11.290233  10.722169  11.395452   7.617368
    45  H   10.495910  10.989827  10.734024  11.292079   7.823596
    46  H   10.188328  10.829778  10.183240  10.841875   7.349511
    47  H   11.763899  12.346076  11.743288  12.432846   8.564487
                   21         22         23         24         25
    21  H    0.000000
    22  H    2.775630   0.000000
    23  H    2.172426   1.726288   0.000000
    24  H    3.654676   1.808941   2.639413   0.000000
    25  H    4.886310   2.544106   3.069375   1.947774   0.000000
    26  H    4.572259   3.080395   2.545072   2.736433   1.726302
    27  H    6.307939   4.858945   4.543050   3.763552   2.773348
    28  H    6.535678   4.536477   4.854848   3.232256   2.172735
    29  H    6.645758   5.719116   5.454875   4.183472   4.140479
    30  H    6.595791   7.023810   7.026771   5.647227   7.137648
    31  H    7.134891   6.760674   6.764789   5.069985   5.961609
    32  C    5.194880   7.031802   7.033695   6.859303   8.747189
    33  H    5.737296   7.310138   7.546370   7.129811   9.059559
    34  H    5.956260   7.828723   7.714894   7.506597   9.373618
    35  C    4.948352   7.183207   7.014233   7.372175   9.165961
    36  H    4.591026   6.726158   6.707740   7.111917   8.882641
    37  H    4.489502   6.947076   6.530473   7.172112   8.869410
    38  C    6.415850   8.702954   8.511667   8.905054  10.705725
    39  H    7.005939   9.091917   9.085961   9.247752  11.105068
    40  C    6.712739   9.166880   8.869329   9.636461  11.333670
    41  H    6.470475   8.814535   8.642303   9.430075  11.102425
    42  H    7.780864  10.231923   9.935539  10.681134  12.393668
    43  H    6.369016   8.974931   8.484835   9.490850  11.098992
    44  C    7.162819   9.507618   9.148670   9.513080  11.295905
    45  H    7.501740   9.658365   9.401123   9.478717  11.311473
    46  H    6.679069   9.121421   8.591646   9.119195  10.824431
    47  H    8.072278  10.486364  10.089392  10.552427  12.319870
                   26         27         28         29         30
    26  H    0.000000
    27  H    2.172735   0.000000
    28  H    2.776707   1.726256   0.000000
    29  H    3.759811   2.172353   2.775563   0.000000
    30  H    7.130890   6.761207   6.760588   4.996127   0.000000
    31  H    5.956533   4.916852   4.916000   2.880642   2.541288
    32  C    8.743102   9.622812   9.619671   8.744231   5.150056
    33  H    9.245699  10.115425   9.938670   9.237396   5.500814
    34  H    9.272211   9.983531  10.070607   8.916994   4.944704
    35  C    9.030041  10.178957  10.293475   9.546688   6.448833
    36  H    8.865719  10.171380  10.180300   9.724856   6.949237
    37  H    8.543158   9.717486   9.999512   9.140483   6.385628
    38  C   10.546421  11.666157  11.803923  10.947100   7.497250
    39  H   11.095578  12.177904  12.179932  11.409562   7.721433
    40  C   11.091322  12.409961  12.621128  11.896456   8.834083
    41  H   10.964006  12.402228  12.519195  12.030664   9.178201
    42  H   12.146808  13.434565  13.652121  12.859892   9.597030
    43  H   10.703852  12.051706  12.398345  11.602318   8.833595
    44  C   10.989961  11.911341  12.187392  10.987908   7.269801
    45  H   11.086217  11.846466  12.050365  10.762226   6.689887
    46  H   10.376460  11.282655  11.689352  10.385757   6.947336
    47  H   11.978399  12.926799  13.237069  12.009052   8.263097
                   31         32         33         34         35
    31  H    0.000000
    32  C    7.319654   0.000000
    33  H    7.687975   1.070000   0.000000
    34  H    7.281579   1.070000   1.747303   0.000000
    35  C    8.466924   1.540000   2.148263   2.148263   0.000000
    36  H    8.818008   2.148263   2.400480   3.017764   1.070000
    37  H    8.266352   2.148263   3.017764   2.543513   1.070000
    38  C    9.692032   2.514809   2.829809   2.643870   1.540000
    39  H    9.991182   2.697601   2.594885   2.862672   2.148263
    40  C   10.905788   3.873947   4.191708   4.115417   2.514809
    41  H   11.157941   4.128203   4.287516   4.604224   2.731460
    42  H   11.760093   4.652340   4.879723   4.741518   3.444312
    43  H   10.791771   4.177522   4.716290   4.372935   2.734496
    44  C    9.563964   2.997504   3.526298   2.539091   2.514810
    45  H    9.094506   2.799054   3.201464   2.066920   2.888499
    46  H    9.120333   3.133143   3.919241   2.653535   2.596963
    47  H   10.577655   4.029269   4.455659   3.568294   3.422571
                   36         37         38         39         40
    36  H    0.000000
    37  H    1.747303   0.000000
    38  C    2.148263   2.148263   0.000000
    39  H    2.496957   3.023599   1.070000   0.000000
    40  C    2.697602   2.769490   1.540000   2.148263   0.000000
    41  H    2.475829   3.114109   2.148263   2.470014   1.070000
    42  H    3.684270   3.738764   2.148263   2.467680   1.070000
    43  H    3.009930   2.557216   2.148263   3.024609   1.070000
    44  C    3.443037   2.697602   1.540000   2.148263   2.514809
    45  H    3.845634   3.229136   2.148263   2.364635   3.422571
    46  H    3.595750   2.342879   2.148263   3.007412   2.888499
    47  H    4.237652   3.584251   2.148263   2.588946   2.596963
                   41         42         43         44         45
    41  H    0.000000
    42  H    1.747303   0.000000
    43  H    1.747303   1.747303   0.000000
    44  C    3.444312   2.734496   2.731461   0.000000
    45  H    4.244805   3.608610   3.757182   1.070000   0.000000
    46  H    3.826119   3.281638   2.700915   1.070000   1.747303
    47  H    3.612605   2.390087   2.833917   1.070000   1.747303
                   46         47
    46  H    0.000000
    47  H    1.747303   0.000000
 Stoichiometry    C21H26
 Framework group  C1[X(C21H26)]
 Deg. of freedom   135
 Full point group                 C1      NOp   1
 Largest Abelian subgroup         C1      NOp   1
 Largest concise Abelian subgroup C1      NOp   1
                         Standard orientation:                         
 ---------------------------------------------------------------------
 Center     Atomic      Atomic             Coordinates (Angstroms)
 Number     Number       Type             X           Y           Z
 ---------------------------------------------------------------------
      1          6           0        1.827342    0.544265   -0.505986
      2          6           0        0.992340    1.655800   -0.388795
      3          6           0       -0.380976    1.481738   -0.218712
      4          6           0       -0.920019    0.195671   -0.166943
      5          6           0       -0.085216   -0.915545   -0.284588
      6          6           0        1.288621   -0.741269   -0.453730
      7          1           0        1.417463    2.669148   -0.429262
      8          1           0        1.946566   -1.617441   -0.546257
      9          6           0       -2.436447    0.003825    0.020785
     10          6           0       -1.302642    2.708590   -0.088463
     11          6           0       -3.357675    1.231106    0.150089
     12          6           0       -2.762474    2.650234    0.091665
     13          6           0       -0.679682   -2.335035   -0.227522
     14          6           0       -3.031647   -1.415303    0.079209
     15          6           0       -2.196146   -2.527832   -0.041063
     16          6           0       -4.874103    1.039260    0.337817
     17          1           0       -5.359638    1.552949   -0.465476
     18          6           0       -4.547622   -1.607521    0.270190
     19          6           0       -5.469303   -0.379867    0.396241
     20          1           0       -0.407685   -2.828544   -1.137119
     21          1           0       -0.194472   -2.848972    0.575808
     22          1           0       -2.547343   -3.098342   -0.875376
     23          1           0       -2.333605   -3.122994    0.837451
     24          1           0       -3.167100   -1.402235   -0.982102
     25          1           0       -4.900326   -2.183951   -0.559405
     26          1           0       -4.682979   -2.196609    1.153113
     27          1           0       -5.986875   -0.467497    1.328625
     28          1           0       -6.197480   -0.449701   -0.384644
     29          1           0       -5.145142    1.533500    1.247303
     30          1           0       -0.847746    3.676091   -0.132179
     31          1           0       -3.366045    3.529730    0.175865
     32          6           0        3.343757    0.736756   -0.693153
     33          1           0        3.567363    0.814032   -1.736671
     34          1           0        3.653935    1.631327   -0.194724
     35          6           0        4.091923   -0.469486   -0.095801
     36          1           0        3.939485   -1.327115   -0.717199
     37          1           0        3.718443   -0.669959    0.886656
     38          6           0        5.597016   -0.152851   -0.018106
     39          1           0        5.953991    0.123075   -0.988330
     40          6           0        6.358668   -1.397450    0.474296
     41          1           0        6.196450   -2.207209   -0.206053
     42          1           0        7.404783   -1.178459    0.525161
     43          1           0        6.003971   -1.671434    1.445905
     44          6           0        5.826680    1.011254    0.963583
     45          1           0        5.582418    1.935917    0.483756
     46          1           0        5.204016    0.880459    1.823864
     47          1           0        6.853177    1.026211    1.265212
 ---------------------------------------------------------------------
 Rotational constants (GHZ):           0.7288961           0.1375885           0.1188559
 Leave Link  202 at Wed Nov  8 22:15:22 2023, MaxMem=  5368709120 cpu:               0.1 elap:               0.0
 (Enter /home/Data/zhangqian/application/g16/l301.exe)
 Standard basis: 6-31G(d) (6D, 7F)
 Ernie: Thresh=  0.10000D-02 Tol=  0.10000D-05 Strict=F.
 There are   367 symmetry adapted cartesian basis functions of A   symmetry.
 There are   367 symmetry adapted basis functions of A   symmetry.
   367 basis functions,   692 primitive gaussians,   367 cartesian basis functions
    76 alpha electrons       76 beta electrons
       nuclear repulsion energy      1586.7922039107 Hartrees.
 IExCor=  402 DFT=T Ex+Corr=B3LYP ExCW=0 ScaHFX=  0.200000
 ScaDFX=  0.800000  0.720000  1.000000  0.810000 ScalE2=  1.000000  1.000000
 IRadAn=      5 IRanWt=     -1 IRanGd=            0 ICorTp=0 IEmpDi=131
 NAtoms=   47 NActive=   47 NUniq=   47 SFac= 1.00D+00 NAtFMM=   60 NAOKFM=F Big=F
 Integral buffers will be    131072 words long.
 Raffenetti 2 integral format.
 Two-electron integral symmetry is turned on.
 R6Disp:  Grimme-D3 Dispersion energy=       -0.0444953637 Hartrees.
 Nuclear repulsion after empirical dispersion term =     1586.7477085470 Hartrees.
 ------------------------------------------------------------------------------
 Polarizable Continuum Model (PCM)
 =================================
 Model                : PCM.
 Atomic radii         : UFF (Universal Force Field).
 Polarization charges : Total charges.
 Charge compensation  : None.
 Solution method      : On-the-fly selection.
 Cavity type          : Scaled VdW (van der Waals Surface) (Alpha=1.100).
 Cavity algorithm     : GePol (No added spheres)
                        Default sphere list used, NSphG=   47.
                        Lebedev-Laikov grids with approx.  5.0 points / Ang**2.
                        Smoothing algorithm: York/Karplus (Gamma=1.0000).
                        Polarization charges: spherical gaussians, with
                                              point-specific exponents (IZeta= 3).
                        Self-potential: point-specific (ISelfS= 7).
                        Self-field    : sphere-specific E.n sum rule (ISelfD= 2).
 1st derivatives      : Analytical E(r).r(x)/FMM algorithm (CHGder, D1EAlg=3).
                        Cavity 1st derivative terms included.
 Solvent              : Water, Eps=  78.355300 Eps(inf)=   1.777849
 ------------------------------------------------------------------------------
 GePol: Number of generator spheres                  =      47
 GePol: Total number of spheres                      =      47
 GePol: Number of exposed spheres                    =      47 (100.00%)
 GePol: Number of points                             =    3042
 GePol: Average weight of points                     =       0.13
 GePol: Minimum weight of points                     =   0.26D-10
 GePol: Maximum weight of points                     =    0.20577
 GePol: Number of points with low weight             =     212
 GePol: Fraction of low-weight points (<1% of avg)   =       6.97%
 GePol: Cavity surface area                          =    388.951 Ang**2
 GePol: Cavity volume                                =    434.690 Ang**3
 Leave Link  301 at Wed Nov  8 22:15:22 2023, MaxMem=  5368709120 cpu:               1.2 elap:               0.1
 (Enter /home/Data/zhangqian/application/g16/l302.exe)
 NPDir=0 NMtPBC=     1 NCelOv=     1 NCel=       1 NClECP=     1 NCelD=      1
         NCelK=      1 NCelE2=     1 NClLst=     1 CellRange=     0.0.
 One-electron integrals computed using PRISM.
 One-electron integral symmetry used in STVInt
 NBasis=   367 RedAO= T EigKep=  2.49D-04  NBF=   367
 NBsUse=   367 1.00D-06 EigRej= -1.00D+00 NBFU=   367
 Precomputing XC quadrature grid using
 IXCGrd= 4 IRadAn=           5 IRanWt=          -1 IRanGd=           0 AccXCQ= 0.00D+00.
 Generated NRdTot=       0 NPtTot=           0 NUsed=           0 NTot=          32
 NSgBfM=   361   361   361   361   361 MxSgAt=    47 MxSgA2=    47.
 Leave Link  302 at Wed Nov  8 22:15:23 2023, MaxMem=  5368709120 cpu:               7.1 elap:               0.3
 (Enter /home/Data/zhangqian/application/g16/l303.exe)
 DipDrv:  MaxL=1.
 Leave Link  303 at Wed Nov  8 22:15:23 2023, MaxMem=  5368709120 cpu:               1.1 elap:               0.1
 (Enter /home/Data/zhangqian/application/g16/l401.exe)
 ExpMin= 1.61D-01 ExpMax= 3.05D+03 ExpMxC= 4.57D+02 IAcc=3 IRadAn=         5 AccDes= 0.00D+00
 Harris functional with IExCor=  402 and IRadAn=       5 diagonalized for initial guess.
 HarFok:  IExCor=  402 AccDes= 0.00D+00 IRadAn=         5 IDoV= 1 UseB2=F ITyADJ=14
 ICtDFT=  3500011 ScaDFX=  1.000000  1.000000  1.000000  1.000000
 FoFCou: FMM=F IPFlag=           0 FMFlag=      100000 FMFlg1=           0
         NFxFlg=           0 DoJE=T BraDBF=F KetDBF=T FulRan=T
         wScrn=  0.000000 ICntrl=       500 IOpCl=  0 I1Cent=   200000004 NGrid=           0
         NMat0=    1 NMatS0=      1 NMatT0=    0 NMatD0=    1 NMtDS0=    0 NMtDT0=    0
 Petite list used in FoFCou.
 Harris En= -815.930314634081    
 JPrj=0 DoOrth=F DoCkMO=F.
 Leave Link  401 at Wed Nov  8 22:15:24 2023, MaxMem=  5368709120 cpu:              19.6 elap:               0.8
 (Enter /home/Data/zhangqian/application/g16/l502.exe)
 Integral symmetry usage will be decided dynamically.
 Closed shell SCF:
 Using DIIS extrapolation, IDIIS=  1040.
 NGot=  5368709120 LenX=  5368426600 LenY=  5368291470
 Requested convergence on RMS density matrix=1.00D-08 within 128 cycles.
 Requested convergence on MAX density matrix=1.00D-06.
 Requested convergence on             energy=1.00D-06.
 No special actions if energy rises.
 Fock matrices will be formed incrementally for  20 cycles.

 Cycle   1  Pass 1  IDiag  1:
 FoFJK:  IHMeth= 1 ICntrl=       0 DoSepK=F KAlg= 0 I1Cent=           0 FoldK=F
 IRaf= 720000000 NMat=       1 IRICut=       1 DoRegI=T DoRafI=F ISym2E= 0 IDoP0=0 IntGTp=1.
 FoFCou: FMM=F IPFlag=           0 FMFlag=      100000 FMFlg1=           0
         NFxFlg=           0 DoJE=F BraDBF=F KetDBF=F FulRan=T
         wScrn=  0.000000 ICntrl=         0 IOpCl=  0 I1Cent=           0 NGrid=           0
         NMat0=    1 NMatS0=      1 NMatT0=    0 NMatD0=    1 NMtDS0=    0 NMtDT0=    0
 Symmetry not used in FoFCou.
 Inv3:  Mode=1 IEnd=    27761292.
 Iteration    1 A*A^-1 deviation from unit magnitude is 3.33D-15 for    450.
 Iteration    1 A*A^-1 deviation from orthogonality  is 2.22D-15 for   1915    299.
 Iteration    1 A^-1*A deviation from unit magnitude is 3.22D-15 for     99.
 Iteration    1 A^-1*A deviation from orthogonality  is 1.06D-14 for   2278   2241.
 E= -815.253029378753    
 DIIS: error= 4.02D-02 at cycle   1 NSaved=   1.
 NSaved= 1 IEnMin= 1 EnMin= -815.253029378753     IErMin= 1 ErrMin= 4.02D-02
 ErrMax= 4.02D-02  0.00D+00 EMaxC= 1.00D-01 BMatC= 5.25D-01 BMatP= 5.25D-01
 IDIUse=3 WtCom= 5.98D-01 WtEn= 4.02D-01
 Coeff-Com:  0.100D+01
 Coeff-En:   0.100D+01
 Coeff:      0.100D+01
 Gap=     0.161 Goal=   None    Shift=    0.000
 GapD=    0.161 DampG=1.000 DampE=0.500 DampFc=0.5000 IDamp=-1.
 Damping current iteration by 5.00D-01
 RMSDP=4.68D-03 MaxDP=1.41D-01              OVMax= 1.59D-01

 Cycle   2  Pass 1  IDiag  1:
 RMSU=  2.27D-03    CP:  9.68D-01
 E= -815.530742972814     Delta-E=       -0.277713594061 Rises=F Damp=T
 DIIS: error= 5.97D-03 at cycle   2 NSaved=   2.
 NSaved= 2 IEnMin= 2 EnMin= -815.530742972814     IErMin= 2 ErrMin= 5.97D-03
 ErrMax= 5.97D-03  0.00D+00 EMaxC= 1.00D-01 BMatC= 2.56D-02 BMatP= 5.25D-01
 IDIUse=3 WtCom= 9.40D-01 WtEn= 5.97D-02
 Coeff-Com:  0.325D-02 0.997D+00
 Coeff-En:   0.000D+00 0.100D+01
 Coeff:      0.305D-02 0.997D+00
 Gap=     0.156 Goal=   None    Shift=    0.000
 RMSDP=1.16D-03 MaxDP=3.04D-02 DE=-2.78D-01 OVMax= 1.01D-01

 Cycle   3  Pass 1  IDiag  1:
 RMSU=  1.14D-03    CP:  9.55D-01  9.82D-01
 E= -815.819546936906     Delta-E=       -0.288803964092 Rises=F Damp=F
 DIIS: error= 3.05D-03 at cycle   3 NSaved=   3.
 NSaved= 3 IEnMin= 3 EnMin= -815.819546936906     IErMin= 3 ErrMin= 3.05D-03
 ErrMax= 3.05D-03  0.00D+00 EMaxC= 1.00D-01 BMatC= 9.78D-03 BMatP= 2.56D-02
 IDIUse=3 WtCom= 9.70D-01 WtEn= 3.05D-02
 Coeff-Com: -0.354D-01 0.363D+00 0.672D+00
 Coeff-En:   0.000D+00 0.000D+00 0.100D+01
 Coeff:     -0.343D-01 0.352D+00 0.682D+00
 Gap=     0.148 Goal=   None    Shift=    0.000
 RMSDP=4.92D-04 MaxDP=2.44D-02 DE=-2.89D-01 OVMax= 5.68D-02

 Cycle   4  Pass 1  IDiag  1:
 RMSU=  4.16D-04    CP:  9.54D-01  1.02D+00  7.85D-01
 E= -815.826029531461     Delta-E=       -0.006482594556 Rises=F Damp=F
 DIIS: error= 2.36D-03 at cycle   4 NSaved=   4.
 NSaved= 4 IEnMin= 4 EnMin= -815.826029531461     IErMin= 4 ErrMin= 2.36D-03
 ErrMax= 2.36D-03  0.00D+00 EMaxC= 1.00D-01 BMatC= 3.72D-03 BMatP= 9.78D-03
 IDIUse=3 WtCom= 9.76D-01 WtEn= 2.36D-02
 Coeff-Com: -0.179D-01 0.951D-01 0.402D+00 0.521D+00
 Coeff-En:   0.000D+00 0.000D+00 0.295D+00 0.705D+00
 Coeff:     -0.175D-01 0.929D-01 0.400D+00 0.525D+00
 Gap=     0.145 Goal=   None    Shift=    0.000
 RMSDP=2.44D-04 MaxDP=1.30D-02 DE=-6.48D-03 OVMax= 3.53D-02

 Cycle   5  Pass 1  IDiag  1:
 RMSU=  1.22D-04    CP:  9.55D-01  1.02D+00  8.21D-01  5.03D-01
 E= -815.829855100203     Delta-E=       -0.003825568742 Rises=F Damp=F
 DIIS: error= 8.31D-04 at cycle   5 NSaved=   5.
 NSaved= 5 IEnMin= 5 EnMin= -815.829855100203     IErMin= 5 ErrMin= 8.31D-04
 ErrMax= 8.31D-04  0.00D+00 EMaxC= 1.00D-01 BMatC= 3.97D-04 BMatP= 3.72D-03
 IDIUse=3 WtCom= 9.92D-01 WtEn= 8.31D-03
 Coeff-Com: -0.706D-02 0.232D-01 0.178D+00 0.315D+00 0.491D+00
 Coeff-En:   0.000D+00 0.000D+00 0.000D+00 0.410D-01 0.959D+00
 Coeff:     -0.701D-02 0.230D-01 0.176D+00 0.313D+00 0.495D+00
 Gap=     0.145 Goal=   None    Shift=    0.000
 RMSDP=7.55D-05 MaxDP=5.43D-03 DE=-3.83D-03 OVMax= 1.30D-02

 Cycle   6  Pass 1  IDiag  1:
 RMSU=  3.62D-05    CP:  9.55D-01  1.02D+00  8.32D-01  5.64D-01  5.09D-01
 E= -815.830272418743     Delta-E=       -0.000417318540 Rises=F Damp=F
 DIIS: error= 2.28D-04 at cycle   6 NSaved=   6.
 NSaved= 6 IEnMin= 6 EnMin= -815.830272418743     IErMin= 6 ErrMin= 2.28D-04
 ErrMax= 2.28D-04  0.00D+00 EMaxC= 1.00D-01 BMatC= 2.70D-05 BMatP= 3.97D-04
 IDIUse=3 WtCom= 9.98D-01 WtEn= 2.28D-03
 Coeff-Com: -0.226D-02 0.425D-02 0.624D-01 0.127D+00 0.276D+00 0.533D+00
 Coeff-En:   0.000D+00 0.000D+00 0.000D+00 0.000D+00 0.000D+00 0.100D+01
 Coeff:     -0.225D-02 0.424D-02 0.623D-01 0.127D+00 0.275D+00 0.534D+00
 Gap=     0.145 Goal=   None    Shift=    0.000
 RMSDP=1.94D-05 MaxDP=1.09D-03 DE=-4.17D-04 OVMax= 3.70D-03

 Cycle   7  Pass 1  IDiag  1:
 RMSU=  1.14D-05    CP:  9.55D-01  1.02D+00  8.32D-01  5.67D-01  5.69D-01
                    CP:  6.18D-01
 E= -815.830298108100     Delta-E=       -0.000025689357 Rises=F Damp=F
 DIIS: error= 7.89D-05 at cycle   7 NSaved=   7.
 NSaved= 7 IEnMin= 7 EnMin= -815.830298108100     IErMin= 7 ErrMin= 7.89D-05
 ErrMax= 7.89D-05  0.00D+00 EMaxC= 1.00D-01 BMatC= 3.50D-06 BMatP= 2.70D-05
 IDIUse=1 WtCom= 1.00D+00 WtEn= 0.00D+00
 Coeff-Com: -0.881D-03 0.992D-03 0.256D-01 0.556D-01 0.137D+00 0.338D+00
 Coeff-Com:  0.444D+00
 Coeff:     -0.881D-03 0.992D-03 0.256D-01 0.556D-01 0.137D+00 0.338D+00
 Coeff:      0.444D+00
 Gap=     0.145 Goal=   None    Shift=    0.000
 RMSDP=6.42D-06 MaxDP=4.49D-04 DE=-2.57D-05 OVMax= 1.04D-03

 Cycle   8  Pass 1  IDiag  1:
 RMSU=  2.74D-06    CP:  9.55D-01  1.02D+00  8.33D-01  5.68D-01  5.67D-01
                    CP:  6.46D-01  5.18D-01
 E= -815.830301837680     Delta-E=       -0.000003729580 Rises=F Damp=F
 DIIS: error= 1.23D-05 at cycle   8 NSaved=   8.
 NSaved= 8 IEnMin= 8 EnMin= -815.830301837680     IErMin= 8 ErrMin= 1.23D-05
 ErrMax= 1.23D-05  0.00D+00 EMaxC= 1.00D-01 BMatC= 1.26D-07 BMatP= 3.50D-06
 IDIUse=1 WtCom= 1.00D+00 WtEn= 0.00D+00
 Coeff-Com: -0.216D-03 0.691D-04 0.656D-02 0.150D-01 0.405D-01 0.115D+00
 Coeff-Com:  0.209D+00 0.614D+00
 Coeff:     -0.216D-03 0.691D-04 0.656D-02 0.150D-01 0.405D-01 0.115D+00
 Coeff:      0.209D+00 0.614D+00
 Gap=     0.145 Goal=   None    Shift=    0.000
 RMSDP=1.32D-06 MaxDP=9.15D-05 DE=-3.73D-06 OVMax= 2.06D-04

 Cycle   9  Pass 1  IDiag  1:
 RMSU=  1.05D-06    CP:  9.55D-01  1.02D+00  8.33D-01  5.69D-01  5.68D-01
                    CP:  6.46D-01  5.49D-01  7.47D-01
 E= -815.830301938078     Delta-E=       -0.000000100398 Rises=F Damp=F
 DIIS: error= 6.15D-06 at cycle   9 NSaved=   9.
 NSaved= 9 IEnMin= 9 EnMin= -815.830301938078     IErMin= 9 ErrMin= 6.15D-06
 ErrMax= 6.15D-06  0.00D+00 EMaxC= 1.00D-01 BMatC= 3.19D-08 BMatP= 1.26D-07
 IDIUse=1 WtCom= 1.00D+00 WtEn= 0.00D+00
 Coeff-Com:  0.339D-05-0.115D-03 0.536D-04 0.495D-03 0.374D-02 0.177D-01
 Coeff-Com:  0.570D-01 0.370D+00 0.552D+00
 Coeff:      0.339D-05-0.115D-03 0.536D-04 0.495D-03 0.374D-02 0.177D-01
 Coeff:      0.570D-01 0.370D+00 0.552D+00
 Gap=     0.145 Goal=   None    Shift=    0.000
 RMSDP=5.83D-07 MaxDP=3.29D-05 DE=-1.00D-07 OVMax= 6.44D-05

 Cycle  10  Pass 1  IDiag  1:
 RMSU=  3.67D-07    CP:  9.55D-01  1.02D+00  8.33D-01  5.69D-01  5.68D-01
                    CP:  6.49D-01  5.55D-01  8.20D-01  6.30D-01
 E= -815.830301969021     Delta-E=       -0.000000030943 Rises=F Damp=F
 DIIS: error= 2.20D-06 at cycle  10 NSaved=  10.
 NSaved=10 IEnMin=10 EnMin= -815.830301969021     IErMin=10 ErrMin= 2.20D-06
 ErrMax= 2.20D-06  0.00D+00 EMaxC= 1.00D-01 BMatC= 2.70D-09 BMatP= 3.19D-08
 IDIUse=1 WtCom= 1.00D+00 WtEn= 0.00D+00
 Coeff-Com:  0.170D-04-0.711D-04-0.438D-03-0.811D-03-0.748D-03 0.166D-02
 Coeff-Com:  0.165D-01 0.163D+00 0.313D+00 0.508D+00
 Coeff:      0.170D-04-0.711D-04-0.438D-03-0.811D-03-0.748D-03 0.166D-02
 Coeff:      0.165D-01 0.163D+00 0.313D+00 0.508D+00
 Gap=     0.145 Goal=   None    Shift=    0.000
 RMSDP=1.96D-07 MaxDP=7.33D-06 DE=-3.09D-08 OVMax= 1.97D-05

 Cycle  11  Pass 1  IDiag  1:
 RMSU=  1.30D-07    CP:  9.55D-01  1.02D+00  8.33D-01  5.68D-01  5.68D-01
                    CP:  6.50D-01  5.56D-01  8.26D-01  6.97D-01  6.84D-01
 E= -815.830301971827     Delta-E=       -0.000000002806 Rises=F Damp=F
 DIIS: error= 5.71D-07 at cycle  11 NSaved=  11.
 NSaved=11 IEnMin=11 EnMin= -815.830301971827     IErMin=11 ErrMin= 5.71D-07
 ErrMax= 5.71D-07  0.00D+00 EMaxC= 1.00D-01 BMatC= 2.42D-10 BMatP= 2.70D-09
 IDIUse=1 WtCom= 1.00D+00 WtEn= 0.00D+00
 Coeff-Com:  0.790D-05-0.165D-04-0.238D-03-0.519D-03-0.968D-03-0.193D-02
 Coeff-Com: -0.545D-03 0.258D-01 0.726D-01 0.262D+00 0.644D+00
 Coeff:      0.790D-05-0.165D-04-0.238D-03-0.519D-03-0.968D-03-0.193D-02
 Coeff:     -0.545D-03 0.258D-01 0.726D-01 0.262D+00 0.644D+00
 Gap=     0.145 Goal=   None    Shift=    0.000
 RMSDP=5.83D-08 MaxDP=2.08D-06 DE=-2.81D-09 OVMax= 7.57D-06

 Cycle  12  Pass 1  IDiag  1:
 RMSU=  3.63D-08    CP:  9.55D-01  1.02D+00  8.33D-01  5.69D-01  5.68D-01
                    CP:  6.49D-01  5.56D-01  8.33D-01  7.04D-01  7.66D-01
                    CP:  7.95D-01
 E= -815.830301972099     Delta-E=       -0.000000000272 Rises=F Damp=F
 DIIS: error= 1.40D-07 at cycle  12 NSaved=  12.
 NSaved=12 IEnMin=12 EnMin= -815.830301972099     IErMin=12 ErrMin= 1.40D-07
 ErrMax= 1.40D-07  0.00D+00 EMaxC= 1.00D-01 BMatC= 1.56D-11 BMatP= 2.42D-10
 IDIUse=1 WtCom= 1.00D+00 WtEn= 0.00D+00
 Coeff-Com:  0.200D-05-0.190D-05-0.691D-04-0.165D-03-0.339D-03-0.895D-03
 Coeff-Com: -0.135D-02 0.420D-03 0.107D-01 0.829D-01 0.287D+00 0.622D+00
 Coeff:      0.200D-05-0.190D-05-0.691D-04-0.165D-03-0.339D-03-0.895D-03
 Coeff:     -0.135D-02 0.420D-03 0.107D-01 0.829D-01 0.287D+00 0.622D+00
 Gap=     0.145 Goal=   None    Shift=    0.000
 RMSDP=1.82D-08 MaxDP=8.22D-07 DE=-2.72D-10 OVMax= 2.87D-06

 Cycle  13  Pass 1  IDiag  1:
 RMSU=  1.44D-08    CP:  9.55D-01  1.02D+00  8.33D-01  5.69D-01  5.68D-01
                    CP:  6.50D-01  5.56D-01  8.33D-01  7.06D-01  7.72D-01
                    CP:  8.51D-01  8.36D-01
 E= -815.830301972128     Delta-E=       -0.000000000029 Rises=F Damp=F
 DIIS: error= 6.42D-08 at cycle  13 NSaved=  13.
 NSaved=13 IEnMin=13 EnMin= -815.830301972128     IErMin=13 ErrMin= 6.42D-08
 ErrMax= 6.42D-08  0.00D+00 EMaxC= 1.00D-01 BMatC= 3.14D-12 BMatP= 1.56D-11
 IDIUse=1 WtCom= 1.00D+00 WtEn= 0.00D+00
 Coeff-Com: -0.392D-06 0.219D-05 0.710D-05 0.631D-05-0.352D-05-0.148D-03
 Coeff-Com: -0.765D-03-0.527D-02-0.930D-02-0.603D-02 0.287D-01 0.329D+00
 Coeff-Com:  0.664D+00
 Coeff:     -0.392D-06 0.219D-05 0.710D-05 0.631D-05-0.352D-05-0.148D-03
 Coeff:     -0.765D-03-0.527D-02-0.930D-02-0.603D-02 0.287D-01 0.329D+00
 Coeff:      0.664D+00
 Gap=     0.145 Goal=   None    Shift=    0.000
 RMSDP=8.26D-09 MaxDP=2.64D-07 DE=-2.89D-11 OVMax= 1.06D-06

 Error on total polarization charges =  0.01298
 SCF Done:  E(RB3LYP) =  -815.830301972     A.U. after   13 cycles
            NFock= 13  Conv=0.83D-08     -V/T= 2.0097
 KE= 8.079912406028D+02 PE=-5.061320677350D+03 EE= 1.850751426228D+03
 Leave Link  502 at Wed Nov  8 22:15:48 2023, MaxMem=  5368709120 cpu:             569.7 elap:              24.6
 (Enter /home/Data/zhangqian/application/g16/l601.exe)
 Copying SCF densities to generalized density rwf, IOpCl= 0 IROHF=0.

 **********************************************************************

            Population analysis using the SCF density.

 **********************************************************************

 Orbital symmetries:
       Occupied  (A) (A) (A) (A) (A) (A) (A) (A) (A) (A) (A) (A)
                 (A) (A) (A) (A) (A) (A) (A) (A) (A) (A) (A) (A)
                 (A) (A) (A) (A) (A) (A) (A) (A) (A) (A) (A) (A)
                 (A) (A) (A) (A) (A) (A) (A) (A) (A) (A) (A) (A)
                 (A) (A) (A) (A) (A) (A) (A) (A) (A) (A) (A) (A)
                 (A) (A) (A) (A) (A) (A) (A) (A) (A) (A) (A) (A)
                 (A) (A) (A) (A)
       Virtual   (A) (A) (A) (A) (A) (A) (A) (A) (A) (A) (A) (A)
                 (A) (A) (A) (A) (A) (A) (A) (A) (A) (A) (A) (A)
                 (A) (A) (A) (A) (A) (A) (A) (A) (A) (A) (A) (A)
                 (A) (A) (A) (A) (A) (A) (A) (A) (A) (A) (A) (A)
                 (A) (A) (A) (A) (A) (A) (A) (A) (A) (A) (A) (A)
                 (A) (A) (A) (A) (A) (A) (A) (A) (A) (A) (A) (A)
                 (A) (A) (A) (A) (A) (A) (A) (A) (A) (A) (A) (A)
[...]
    14  C   -0.030749  -0.039101   0.004000  -0.004058   0.001016   0.000013
    15  C   -0.004059  -0.005094  -0.000128   0.000173   0.000047  -0.000000
    16  C    0.004653  -0.003557  -0.029278  -0.039647   0.358857  -0.000178
    17  H   -0.000137   0.000098  -0.000955  -0.005485  -0.036882  -0.000006
    18  C    0.364493   0.371687  -0.030942  -0.042983  -0.005109  -0.000000
    19  C   -0.031607  -0.042462   0.365737   0.377172  -0.032654   0.000002
    20  H   -0.000011   0.000008   0.000000  -0.000001   0.000000  -0.000000
    21  H   -0.000001   0.000003  -0.000000   0.000000  -0.000000  -0.000000
    22  H    0.004602  -0.000257  -0.000003  -0.000002  -0.000001   0.000000
    23  H   -0.000278   0.005251   0.000002   0.000007  -0.000006  -0.000000
    24  H   -0.004954   0.006354  -0.000066   0.005024  -0.000043  -0.000000
    25  H    0.600525  -0.036046  -0.003426  -0.003207  -0.000128   0.000000
    26  H   -0.036046   0.607596  -0.002975   0.005839   0.003448  -0.000000
    27  H   -0.003426  -0.002975   0.599321  -0.036251  -0.005901  -0.000000
    28  H   -0.003207   0.005839  -0.036251   0.601671   0.005565  -0.000000
    29  H   -0.000128   0.003448  -0.005901   0.005565   0.591585   0.000001
    30  H    0.000000  -0.000000  -0.000000  -0.000000   0.000001   0.583155
    31  H   -0.000000   0.000001  -0.000006  -0.000001   0.001317  -0.004632
    32  C   -0.000000  -0.000000   0.000000   0.000000   0.000000  -0.000005
    33  H    0.000000   0.000000  -0.000000  -0.000000  -0.000000   0.000000
    34  H    0.000000  -0.000000  -0.000000  -0.000000  -0.000000   0.000001
    35  C   -0.000000  -0.000000   0.000000   0.000000   0.000000  -0.000000
    36  H    0.000000  -0.000000  -0.000000  -0.000000  -0.000000   0.000000
    37  H    0.000000   0.000000  -0.000000  -0.000000  -0.000000   0.000000
    38  C    0.000000  -0.000000  -0.000000  -0.000000  -0.000000  -0.000000
    39  H   -0.000000  -0.000000  -0.000000  -0.000000  -0.000000  -0.000000
    40  C   -0.000000   0.000000   0.000000   0.000000   0.000000   0.000000
    41  H    0.000000   0.000000   0.000000   0.000000   0.000000   0.000000
    42  H    0.000000  -0.000000   0.000000   0.000000  -0.000000  -0.000000
    43  H   -0.000000  -0.000000   0.000000   0.000000   0.000000  -0.000000
    44  C    0.000000   0.000000   0.000000   0.000000   0.000000  -0.000000
    45  H    0.000000   0.000000  -0.000000  -0.000000  -0.000000  -0.000000
    46  H   -0.000000  -0.000000   0.000000   0.000000   0.000000  -0.000000
    47  H    0.000000  -0.000000   0.000000   0.000000  -0.000000   0.000000
              31         32         33         34         35         36
     1  C    0.000003   0.348231  -0.028942  -0.031164  -0.039866  -0.004235
     2  C   -0.000214  -0.044669   0.003005  -0.004823  -0.003315   0.000009
     3  C    0.002390   0.004785  -0.000162   0.000198  -0.000202   0.000007
     4  C    0.001239   0.001264  -0.000007  -0.000010   0.000030  -0.000004
     5  C    0.000021   0.004786   0.000057  -0.000142  -0.000061  -0.000116
     6  C   -0.000001  -0.053998  -0.005285   0.004245  -0.003864   0.005191
     7  H   -0.000011  -0.008447   0.000054   0.006365   0.000258   0.000024
     8  H    0.000000  -0.007216   0.003824   0.000030   0.000422   0.001954
     9  C    0.003957   0.000008  -0.000000  -0.000000   0.000000  -0.000000
    10  C   -0.038410  -0.000252   0.000003   0.000001   0.000003   0.000000
    11  C   -0.041933  -0.000000  -0.000000   0.000000  -0.000000   0.000000
    12  C    0.355029   0.000002  -0.000000  -0.000000   0.000000  -0.000000
    13  C    0.000000  -0.000205   0.000001   0.000002  -0.000001  -0.000000
    14  C   -0.000171   0.000000   0.000000  -0.000000  -0.000000   0.000000
    15  C    0.000002   0.000002   0.000000  -0.000000   0.000000  -0.000000
    16  C   -0.007272  -0.000000   0.000000   0.000000  -0.000000  -0.000000
    17  H    0.004248  -0.000000   0.000000   0.000000  -0.000000   0.000000
    18  C    0.000008   0.000000   0.000000  -0.000000   0.000000   0.000000
    19  C    0.000154  -0.000000  -0.000000   0.000000   0.000000  -0.000000
    20  H    0.000000   0.000005  -0.000002  -0.000000   0.000000   0.000000
    21  H    0.000000  -0.000008   0.000003   0.000000  -0.000002   0.000003
    22  H   -0.000000  -0.000000  -0.000000   0.000000  -0.000000   0.000000
    23  H    0.000000  -0.000000  -0.000000  -0.000000   0.000000   0.000000
    24  H    0.000004  -0.000000   0.000000  -0.000000  -0.000000  -0.000000
    25  H   -0.000000  -0.000000   0.000000   0.000000  -0.000000   0.000000
    26  H    0.000001  -0.000000   0.000000  -0.000000  -0.000000  -0.000000
    27  H   -0.000006   0.000000  -0.000000  -0.000000   0.000000  -0.000000
    28  H   -0.000001   0.000000  -0.000000  -0.000000   0.000000  -0.000000
    29  H    0.001317   0.000000  -0.000000  -0.000000   0.000000  -0.000000
    30  H   -0.004632  -0.000005   0.000000   0.000001  -0.000000   0.000000
    31  H    0.590718  -0.000000   0.000000  -0.000000   0.000000   0.000000
    32  C   -0.000000   5.154599   0.358623   0.359709   0.361734  -0.043175
    33  H    0.000000   0.358623   0.598913  -0.036616  -0.041491  -0.004407
    34  H   -0.000000   0.359709  -0.036616   0.585266  -0.033427   0.005585
    35  C    0.000000   0.361734  -0.041491  -0.033427   5.055437   0.369823
    36  H    0.000000  -0.043175  -0.004407   0.005585   0.369823   0.605499
    37  H    0.000000  -0.040936   0.006150  -0.005499   0.362949  -0.037591
    38  C   -0.000000  -0.033069  -0.003863  -0.005059   0.374493  -0.035147
    39  H    0.000000  -0.005126   0.006188  -0.000208  -0.049280  -0.003471
    40  C    0.000000   0.003900   0.000078   0.000018  -0.045874  -0.004638
    41  H    0.000000   0.000000  -0.000005   0.000000  -0.004109   0.005128
    42  H   -0.000000  -0.000139  -0.000000   0.000002   0.004632   0.000018
    43  H   -0.000000   0.000019   0.000009   0.000002  -0.006066  -0.000285
    44  C   -0.000000  -0.003891  -0.000771   0.002817  -0.048884   0.005534
    45  H    0.000000   0.001644   0.000551   0.002705  -0.004847  -0.000058
    46  H    0.000000  -0.000469   0.000090   0.000391  -0.005933  -0.000001
    47  H   -0.000000   0.000091  -0.000034  -0.000103   0.004902  -0.000162
              37         38         39         40         41         42
     1  C   -0.000357   0.003730   0.000041  -0.000121   0.000002   0.000001
     2  C    0.003000   0.000028  -0.000000  -0.000001   0.000000   0.000000
     3  C   -0.000088   0.000001  -0.000000  -0.000000  -0.000000   0.000000
     4  C   -0.000007  -0.000000   0.000000   0.000000   0.000000  -0.000000
     5  C   -0.000020   0.000003  -0.000000  -0.000000  -0.000000   0.000000
     6  C   -0.000392   0.000129  -0.000001  -0.000008  -0.000003   0.000000
     7  H    0.000252  -0.000023   0.000000   0.000000   0.000000  -0.000000
     8  H    0.000047  -0.000098   0.000016   0.000002   0.000000  -0.000000
     9  C   -0.000000  -0.000000   0.000000   0.000000   0.000000  -0.000000
    10  C   -0.000002  -0.000000  -0.000000   0.000000   0.000000  -0.000000
    11  C    0.000000   0.000000  -0.000000  -0.000000  -0.000000   0.000000
    12  C   -0.000000   0.000000  -0.000000  -0.000000  -0.000000   0.000000
    13  C    0.000000  -0.000000  -0.000000   0.000000   0.000000  -0.000000
    14  C    0.000000   0.000000   0.000000  -0.000000  -0.000000   0.000000
    15  C   -0.000000  -0.000000  -0.000000  -0.000000   0.000000   0.000000
    16  C   -0.000000   0.000000  -0.000000  -0.000000   0.000000   0.000000
    17  H    0.000000   0.000000   0.000000  -0.000000  -0.000000   0.000000
    18  C   -0.000000   0.000000   0.000000  -0.000000  -0.000000   0.000000
    19  C   -0.000000  -0.000000   0.000000   0.000000   0.000000   0.000000
    20  H   -0.000000  -0.000000   0.000000   0.000000  -0.000000  -0.000000
    21  H    0.000000   0.000000  -0.000000  -0.000000   0.000000   0.000000
    22  H   -0.000000  -0.000000  -0.000000   0.000000  -0.000000  -0.000000
    23  H   -0.000000   0.000000   0.000000   0.000000  -0.000000   0.000000
    24  H    0.000000   0.000000  -0.000000  -0.000000   0.000000   0.000000
    25  H    0.000000   0.000000  -0.000000  -0.000000   0.000000   0.000000
    26  H    0.000000  -0.000000  -0.000000   0.000000   0.000000  -0.000000
    27  H   -0.000000  -0.000000  -0.000000   0.000000   0.000000   0.000000
    28  H   -0.000000  -0.000000  -0.000000   0.000000   0.000000   0.000000
    29  H   -0.000000  -0.000000  -0.000000   0.000000   0.000000  -0.000000
    30  H    0.000000  -0.000000  -0.000000   0.000000   0.000000  -0.000000
    31  H    0.000000  -0.000000   0.000000   0.000000   0.000000  -0.000000
    32  C   -0.040936  -0.033069  -0.005126   0.003900   0.000000  -0.000139
    33  H    0.006150  -0.003863   0.006188   0.000078  -0.000005  -0.000000
    34  H   -0.005499  -0.005059  -0.000208   0.000018   0.000000   0.000002
    35  C    0.362949   0.374493  -0.049280  -0.045874  -0.004109   0.004632
    36  H   -0.037591  -0.035147  -0.003471  -0.004638   0.005128   0.000018
    37  H    0.613556  -0.035693   0.006380  -0.004012  -0.000266  -0.000070
    38  C   -0.035693   4.843135   0.380446   0.378703  -0.029635  -0.028338
    39  H    0.006380   0.380446   0.636497  -0.045242  -0.003265  -0.003349
    40  C   -0.004012   0.378703  -0.045242   5.116447   0.369684   0.368411
    41  H   -0.000266  -0.029635  -0.003265   0.369684   0.576592  -0.029800
    42  H   -0.000070  -0.028338  -0.003349   0.368411  -0.029800   0.578047
    43  H    0.004780  -0.034030   0.005777   0.371999  -0.031284  -0.031588
    44  C   -0.008029   0.380563  -0.048050  -0.054952   0.005272  -0.003681
    45  H    0.000022  -0.028697  -0.003413   0.005033  -0.000184  -0.000036
    46  H    0.005668  -0.034989   0.005853  -0.005018  -0.000051  -0.000222
    47  H   -0.000039  -0.030077  -0.003050  -0.004504  -0.000010   0.004349
              43         44         45         46         47
     1  C   -0.000000   0.000250   0.000076  -0.000037  -0.000002
     2  C   -0.000001  -0.000010  -0.000004  -0.000002   0.000000
     3  C   -0.000000  -0.000000  -0.000000  -0.000000   0.000000
     4  C    0.000000   0.000000   0.000000   0.000000  -0.000000
     5  C   -0.000000  -0.000000  -0.000000  -0.000000   0.000000
     6  C    0.000000  -0.000002  -0.000002   0.000000   0.000000
     7  H    0.000000   0.000001   0.000002   0.000005  -0.000000
     8  H    0.000000   0.000001   0.000000   0.000000  -0.000000
     9  C    0.000000   0.000000   0.000000  -0.000000  -0.000000
    10  C    0.000000   0.000000   0.000000  -0.000000  -0.000000
    11  C   -0.000000  -0.000000  -0.000000  -0.000000   0.000000
    12  C    0.000000   0.000000   0.000000  -0.000000  -0.000000
    13  C   -0.000000   0.000000   0.000000  -0.000000   0.000000
    14  C   -0.000000  -0.000000  -0.000000   0.000000   0.000000
    15  C   -0.000000   0.000000  -0.000000  -0.000000  -0.000000
    16  C   -0.000000  -0.000000  -0.000000  -0.000000   0.000000
    17  H   -0.000000  -0.000000   0.000000  -0.000000   0.000000
    18  C    0.000000  -0.000000  -0.000000  -0.000000   0.000000
    19  C    0.000000   0.000000  -0.000000   0.000000   0.000000
    20  H    0.000000  -0.000000  -0.000000   0.000000  -0.000000
    21  H   -0.000000   0.000000   0.000000  -0.000000   0.000000
    22  H    0.000000   0.000000   0.000000   0.000000   0.000000
    23  H    0.000000  -0.000000  -0.000000   0.000000   0.000000
    24  H   -0.000000   0.000000   0.000000  -0.000000   0.000000
    25  H   -0.000000   0.000000   0.000000  -0.000000   0.000000
    26  H   -0.000000   0.000000   0.000000  -0.000000  -0.000000
    27  H    0.000000   0.000000  -0.000000   0.000000   0.000000
    28  H    0.000000   0.000000  -0.000000   0.000000   0.000000
    29  H    0.000000   0.000000  -0.000000   0.000000  -0.000000
    30  H   -0.000000  -0.000000  -0.000000  -0.000000   0.000000
    31  H   -0.000000  -0.000000   0.000000   0.000000  -0.000000
    32  C    0.000019  -0.003891   0.001644  -0.000469   0.000091
    33  H    0.000009  -0.000771   0.000551   0.000090  -0.000034
    34  H    0.000002   0.002817   0.002705   0.000391  -0.000103
    35  C   -0.006066  -0.048884  -0.004847  -0.005933   0.004902
    36  H   -0.000285   0.005534  -0.000058  -0.000001  -0.000162
    37  H    0.004780  -0.008029   0.000022   0.005668  -0.000039
    38  C   -0.034030   0.380563  -0.028697  -0.034989  -0.030077
    39  H    0.005777  -0.048050  -0.003413   0.005853  -0.003050
    40  C    0.371999  -0.054952   0.005033  -0.005018  -0.004504
    41  H   -0.031284   0.005272  -0.000184  -0.000051  -0.000010
    42  H   -0.031588  -0.003681  -0.000036  -0.000222   0.004349
    43  H    0.580957  -0.005489  -0.000038   0.004841  -0.000224
    44  C   -0.005489   5.119576   0.370744   0.371624   0.370549
    45  H   -0.000038   0.370744   0.569318  -0.031399  -0.029913
    46  H    0.004841   0.371624  -0.031399   0.580517  -0.031338
    47  H   -0.000224   0.370549  -0.029913  -0.031338   0.577222
 Mulliken charges:
               1
     1  C    0.180713
     2  C   -0.300227
     3  C    0.146892
     4  C    0.012437
     5  C    0.120889
     6  C   -0.284071
     7  H    0.132944
     8  H    0.128190
     9  C    0.045750
    10  C   -0.218156
    11  C    0.087078
    12  C   -0.202324
    13  C   -0.351702
    14  C   -0.156307
    15  C   -0.273784
    16  C   -0.344038
    17  H    0.150170
    18  C   -0.270142
    19  C   -0.271709
    20  H    0.156397
    21  H    0.151397
    22  H    0.137473
    23  H    0.138589
    24  H    0.142507
    25  H    0.135381
    26  H    0.134592
    27  H    0.137048
    28  H    0.138908
    29  H    0.155252
    30  H    0.139790
    31  H    0.133559
    32  C   -0.357799
    33  H    0.144038
    34  H    0.149714
    35  C   -0.247460
    36  H    0.134516
    37  H    0.130194
    38  C   -0.062513
    39  H    0.123257
    40  C   -0.449904
    41  H    0.141935
    42  H    0.141763
    43  H    0.140620
    44  C   -0.453171
    45  H    0.148498
    46  H    0.140469
    47  H    0.142344
 Sum of Mulliken charges =  -0.00000
 Mulliken charges with hydrogens summed into heavy atoms:
               1
     1  C    0.180713
     2  C   -0.167283
     3  C    0.146892
     4  C    0.012437
     5  C    0.120889
     6  C   -0.155881
     9  C    0.045750
    10  C   -0.078365
    11  C    0.087078
    12  C   -0.068765
    13  C   -0.043909
    14  C   -0.013800
    15  C    0.002279
    16  C   -0.038616
    18  C   -0.000169
    19  C    0.004247
    32  C   -0.064047
    35  C    0.017249
    38  C    0.060744
    40  C   -0.025585
    44  C   -0.021859
 Electronic spatial extent (au):  <R**2>=           8977.4776
 Charge=              0.0000 electrons
 Dipole moment (field-independent basis, Debye):
    X=             -0.4779    Y=             -0.8537    Z=             -0.0047  Tot=              0.9783
 Quadrupole moment (field-independent basis, Debye-Ang):
   XX=           -114.7649   YY=           -119.7803   ZZ=           -129.7624
   XY=              0.6369   XZ=             -2.1923   YZ=              2.1100
 Traceless Quadrupole moment (field-independent basis, Debye-Ang):
   XX=              6.6709   YY=              1.6555   ZZ=             -8.3265
   XY=              0.6369   XZ=             -2.1923   YZ=              2.1100
 Octapole moment (field-independent basis, Debye-Ang**2):
  XXX=            -25.4958  YYY=              4.8518  ZZZ=              2.8241  XYY=             -6.9945
  XXY=             -0.6283  XXZ=             -1.7320  XZZ=             -1.6202  YZZ=             -4.9251
  YYZ=             -0.2820  XYZ=             -2.5209
 Hexadecapole moment (field-independent basis, Debye-Ang**3):
 XXXX=          -9973.1091 YYYY=          -1662.3172 ZZZZ=           -474.7838 XXXY=            -37.6267
 XXXZ=            -61.5229 YYYX=            -11.9452 YYYZ=             13.9765 ZZZX=             -7.1461
 ZZZY=              6.7976 XXYY=          -1959.8702 XXZZ=          -1790.9875 YYZZ=           -378.9860
 XXYZ=             27.4689 YYXZ=             -5.5549 ZZXY=             11.0630
 N-N= 1.605312998313D+03 E-N=-5.098524894904D+03  KE= 8.079194497762D+02
 No NMR shielding tensors so no spin-rotation constants.
 Leave Link  601 at Wed Nov  8 22:29:34 2023, MaxMem=  5368709120 cpu:               3.4 elap:               0.2
 (Enter /home/Data/zhangqian/application/g16/l9999.exe)
 1\1\GINC-INFRARED\FOpt\RB3LYP\6-31G(d)\C21H26\ZHANGQIAN\08-Nov-2023\0\
 \#p opt b3lyp/6-31g(d) scrf=(solvent=water,pcm) empiricaldispersion=gd
 3\\Title Card Required\\0,1\C,-26.7798037555,-6.0550613828,-3.45040427
 4\C,-25.4438233595,-6.0601865127,-3.1045002939\C,-24.680019289,-4.8640
 521325,-3.0835945127\C,-25.2955169294,-3.6214585044,-3.4439269613\C,-2
 6.6836565657,-3.6258088475,-3.7938585581\C,-27.3845129698,-4.815023647
 ,-3.784796127\H,-24.9553750802,-6.9945606338,-2.8333907004\H,-28.44300
 59218,-4.8051994212,-4.0412106195\C,-24.5226417925,-2.4126176621,-3.43
 07578998\C,-23.3093055853,-4.8623653216,-2.7090646493\C,-23.1913475562
 ,-2.4470904086,-3.0396194573\C,-22.597372453,-3.6887220068,-2.68238014
 54\C,-27.3677137107,-2.3262423592,-4.1626203889\C,-25.1890997532,-1.11
 17080712,-3.8622430066\C,-26.6815543684,-1.1238733989,-3.5078548919\C,
 -22.3424371965,-1.1921040651,-2.9353664105\H,-21.3393947545,-1.3929243
 933,-3.3339595246\C,-24.4551159801,0.1163442383,-3.3113414765\C,-22.96
 00134546,0.027578044,-3.6286241022\H,-27.3384202868,-2.1954584943,-5.2
 552758787\H,-28.4281401607,-2.3728804888,-3.8878704855\H,-27.150392493
 8,-0.1898790921,-3.8403357271\H,-26.7966289635,-1.1761915873,-2.416241
 3315\H,-25.1239308845,-1.0614898539,-4.9630417763\H,-24.8940861259,1.0
 25637386,-3.7403323554\H,-24.6002007815,0.1718386957,-2.2223080952\H,-
 22.4357547211,0.938715425,-3.3174034111\H,-22.8304046107,-0.0588698545
 ,-4.716474962\H,-22.1969637701,-0.9645442466,-1.868130255\H,-22.835156
 4427,-5.8037138588,-2.4407120992\H,-21.5508997962,-3.6970468462,-2.383
 9416518\C,-27.613256057,-7.3163668776,-3.4222656082\H,-28.26454026,-7.
 3502928159,-4.3070295994\H,-26.9541648836,-8.1896048998,-3.4804789897\
 C,-28.4918930472,-7.4049581447,-2.1581072134\H,-29.0810536072,-6.48070
 10411,-2.0788034445\H,-27.8406673095,-7.4313358829,-1.2718511975\C,-29
 .4494524021,-8.6100950399,-2.121911745\H,-30.0700039764,-8.570330845,-
 3.0307604254\C,-30.3824849276,-8.5104651158,-0.9060456263\H,-30.952011
 0019,-7.5732546352,-0.9150069212\H,-31.0978073154,-9.3414103047,-0.885
 5574916\H,-29.8060938334,-8.5431192301,0.0280864729\C,-28.7009239239,-
 9.9514181055,-2.1148039055\H,-28.0927690974,-10.0896386052,-3.01515674
 13\H,-28.0332609653,-10.0150756496,-1.2450652134\H,-29.4042160586,-10.
 7908155348,-2.0581395214\\Version=ES64L-G16RevA.03\State=1-A\HF=-816.0
 022437\RMSD=4.552e-09\RMSF=4.512e-06\Dipole=-0.166886,0.335602,-0.0876
 074\Quadrupole=1.6808057,3.9377512,-5.6185569,2.1135045,2.3427793,-1.6
 293869\PG=C01 [X(C21H26)]\\@


 THESE ARE THE TIMES THAT TRY MENS SOULS.
 THE SUMMER SOLDIER AND THE SUNSHINE PATRIOT WILL IN THIS CRISIS,
 SHRINK FROM THE SERVICE OF HIS COUNTRY.  BUT HE THAT STANDS NOW,
 DESERVES THE LOVE AND THANKS OF MAN AND WOMAN.
 TYRANNY, LIKE HELL, IS NOT EASILY CONQUERED,
 YET WE HAVE THIS CONSOLATION WITH US,
 THAT THE HARDER THE CONFLICT, THE MORE GLORIOUS THE TRIUMPH.
 WHAT WE OBTAIN TOO CHEAP, WE ESTEEM TOO LIGHTLY, 
 'TIS DEARNESS ONLY THAT GIVES EVERYTHING ITS VALUE.

                                              -- TOM PAINE
 Job cpu time:       0 days  5 hours 27 minutes 27.2 seconds.
 Elapsed time:       0 days  0 hours 14 minutes  6.5 seconds.
 File lengths (MBytes):  RWF=    390 Int=      0 D2E=      0 Chk=     18 Scr=      1
 Normal termination of Gaussian 16 at Wed Nov  8 22:29:35 2023.
